------------------------------------------------------------
          Invoking FHI-aims ...

          When using FHI-aims, please cite the following reference:

            Volker Blum, Ralf Gehrke, Felix Hanke, Paula Havu,
            Ville Havu, Xinguo Ren, Karsten Reuter, and Matthias Scheffler,
            'Ab Initio Molecular Simulations with Numeric Atom-Centered Orbitals',
            Computer Physics Communications 180, 2175-2196 (2009)

          In addition, many other developments in FHI-aims are likely important for
          your particular application. A partial list of references is given at the end of
          this file. Thank you for giving credit to the authors of these developments.

          For any questions about FHI-aims, please visit our slack channel at

            https://fhi-aims.slack.com

          and our main development and support site at

            https://aims-git.rz-berlin.mpg.de .

          The latter site, in particular, has a wiki to collect information, as well
          as an issue tracker to log discussions, suggest improvements, and report issues
          or bugs. https://aims-git.rz-berlin.mpg.de is also the main development site
          of the project and all new and updated code versions can be obtained there.
          Please send an email to aims-coordinators@fhi-berlin.mpg.de and we will add
          you to these sites. They are for you and everyone is welcome there.

------------------------------------------------------------



  Date     :  20221003, Time     :  095753.206
  Time zero on CPU 1             :   0.520000000000000E-01  s.
  Internal wall clock time zero  :           434023073.206  s.

  FHI-aims created a unique identifier for this run for later identification
  aims_uuid : 6D2D13C6-AD2F-4E8C-A34E-EE14F7F84B0C

  Build configuration of the current instance of FHI-aims
  -------------------------------------------------------
  FHI-aims version      : 220810
  Commit number         : eae8be818
  CMake host system     : Linux-4.9.0-16-amd64
  CMake version         : 3.17.3
  Fortran compiler      : /opt/easybuild/software/impi/2017.3.196-iccifort-2017.4.196-GCC-6.4.0-2.28/bin64/mpiifort (Intel) version 17.0.4.20170411
  Fortran compiler flags: -O3 -ip -fp-model precise
  C compiler            : /opt/easybuild/software/icc/2017.4.196-GCC-6.4.0-2.28/compilers_and_libraries_2017.4.196/linux/bin/intel64/icc (Intel) version 17.0.4.20170411
  C compiler flags      : -O3 -ip -fp-model precise -std=gnu99
  Using MPI
  Using ScaLAPACK
  Using LibXC
  Using i-PI
  Using RLSY
  Linking against: /opt/easybuild/software/imkl/2017.3.196-iimpi-2017b/mkl/lib/intel64/libmkl_intel_lp64.so
                   /opt/easybuild/software/imkl/2017.3.196-iimpi-2017b/mkl/lib/intel64/libmkl_sequential.so
                   /opt/easybuild/software/imkl/2017.3.196-iimpi-2017b/mkl/lib/intel64/libmkl_core.so
                   /opt/easybuild/software/imkl/2017.3.196-iimpi-2017b/mkl/lib/intel64/libmkl_blacs_intelmpi_lp64.so
                   /opt/easybuild/software/imkl/2017.3.196-iimpi-2017b/mkl/lib/intel64/libmkl_scalapack_lp64.so

  Using       16 parallel tasks.
  Task        0 on host mpsd-hpc-ibm-056 reporting.
  Task        1 on host mpsd-hpc-ibm-056 reporting.
  Task        2 on host mpsd-hpc-ibm-056 reporting.
  Task        3 on host mpsd-hpc-ibm-056 reporting.
  Task        4 on host mpsd-hpc-ibm-057 reporting.
  Task        5 on host mpsd-hpc-ibm-057 reporting.
  Task        6 on host mpsd-hpc-ibm-057 reporting.
  Task        7 on host mpsd-hpc-ibm-057 reporting.
  Task        8 on host mpsd-hpc-ibm-058 reporting.
  Task        9 on host mpsd-hpc-ibm-058 reporting.
  Task       10 on host mpsd-hpc-ibm-058 reporting.
  Task       11 on host mpsd-hpc-ibm-058 reporting.
  Task       12 on host mpsd-hpc-ibm-059 reporting.
  Task       13 on host mpsd-hpc-ibm-059 reporting.
  Task       14 on host mpsd-hpc-ibm-059 reporting.
  Task       15 on host mpsd-hpc-ibm-059 reporting.

  Performing system and environment tests:
  | Environment variable OMP_NUM_THREADS correctly set to 1.
  | Checking for ScaLAPACK...
  | Testing pdtran()...
  | All pdtran() tests passed.

  Obtaining array dimensions for all initial allocations:
  
  -----------------------------------------------------------------------
  Parsing control.in (first pass over file, find array dimensions only).
  The contents of control.in will be repeated verbatim below
  unless switched off by setting 'verbatim_writeout .false.' .
  in the first line of control.in .
  -----------------------------------------------------------------------
  
  #########################################################################################
  #
  #  Volker Blum, 2017 : Test run input file control.in for simple H2O
  #
  #########################################################################################
  #
  #  Physical model
  #
    xc                 pbe
    spin               none
    relativistic       none
    charge             0.
  
  #  ri_density_restart         write
  #  ri_rho1 write
  #  ri_full_output .True.
  #  ri_output_density_only .True.
    DFPT dielectric
    sc_accuracy_rho    1d-6
  #  use_calculate_fock_matrix_old .false.
  #  output cube total_density
    k_grid 1 1 1
    wave_threshold 1e-8
  
  # prodbas_threshold 1e-2
  #
  #  Relaxation
  #
  #  relax_geometry   bfgs 1.e-2
  #
  
  ################################################################################
  
  ################################################################################
  #
  #  FHI-aims code project
  #  VB, Fritz-Haber Institut, 2009
  #
  #  Suggested "light" defaults for O atom (to be pasted into control.in file)
  #  Be sure to double-check any results obtained with these settings for post-processing,
  #  e.g., with the "tight" defaults and larger basis sets.
  #
  ################################################################################
    species        O
  #     global species definitions
      nucleus             8
      mass                15.9994
  #
      l_hartree           6
  #
      cut_pot             4.0  2.0  1.0
      basis_dep_cutoff    1e-4
  #
      radial_base         36 7.0
      radial_multiplier   2
       angular_grids specified
        division   0.2659   50
        division   0.4451  110
        division   0.6052  194
        division   0.7543  302
        division   0.8014  434
  #      division   0.8507  590
  #      division   0.8762  770
  #      division   0.9023  974
  #      division   1.2339 1202
  #      outer_grid 974
        outer_grid 434
  ################################################################################
  #
  #  Definition of "minimal" basis
  #
  ################################################################################
  #     valence basis states
      valence      2  s   2.
      valence      2  p   4.
  #     ion occupancy
      ion_occ      2  s   1.
      ion_occ      2  p   3.
  ################################################################################
  #
  #  Suggested additional basis functions. For production calculations,
  #  uncomment them one after another (the most important basis functions are
  #  listed first).
  #
  #
  ################################################################################
  #  "First tier" - improvements: -699.05 meV to -159.38 meV
       hydro 2 p 1.8
       hydro 3 d 7.6
       hydro 3 s 6.4
  #  "Second tier" - improvements: -49.91 meV to -5.39 meV
       hydro 4 f 11.6
       hydro 3 p 6.2
       hydro 3 d 5.6
       hydro 5 g 17.6
       hydro 1 s 0.75
  #  "Third tier" - improvements: -2.83 meV to -0.50 meV
  #     ionic 2 p auto
  #     hydro 4 f 10.8
  #     hydro 4 d 4.7
  #     hydro 2 s 6.8
  #  "Fourth tier" - improvements: -0.40 meV to -0.12 meV
  #     hydro 3 p 5
  #     hydro 3 s 3.3
  #     hydro 5 g 15.6
  #     hydro 4 f 17.6
  #     hydro 4 d 14
  # Further basis functions - -0.08 meV and below
  #     hydro 3 s 2.1
  #     hydro 4 d 11.6
  #     hydro 3 p 16
  #     hydro 2 s 17.2
  ################################################################################
  #
  #  FHI-aims code project
  #  VB, Fritz-Haber Institut, 2009
  #
  #  Suggested "light" defaults for H atom (to be pasted into control.in file)
  #  Be sure to double-check any results obtained with these settings for post-processing,
  #  e.g., with the "tight" defaults and larger basis sets.
  #
  ################################################################################
    species        H
  #     global species definitions
      nucleus             1
      mass                1.00794
  #
      l_hartree           6
  #
      cut_pot             4.0  2.0  1.0
      basis_dep_cutoff    1e-4
  #
      radial_base         24 7.0
      radial_multiplier   2
      angular_grids       specified
        division   0.2421   50
        division   0.3822  110
        division   0.4799  194
        division   0.5341  302
        division   0.5626  434
  #      division   0.5922  590
  #      division   0.6542  770
  #      division   0.6868 1202
  #      outer_grid  770
        outer_grid  434
  ################################################################################
  #
  #  Definition of "minimal" basis
  #
  ################################################################################
  #     valence basis states
      valence      1  s   1.
  #     ion occupancy
      ion_occ      1  s   0.5
  ################################################################################
  #
  #  Suggested additional basis functions. For production calculations,
  #  uncomment them one after another (the most important basis functions are
  #  listed first).
  #
  #  Basis constructed for dimers: 0.5 A, 0.7 A, 1.0 A, 1.5 A, 2.5 A
  #
  ################################################################################
  #  "First tier" - improvements: -1014.90 meV to -62.69 meV
       hydro 2 s 2.1
       hydro 2 p 3.5
  #  "Second tier" - improvements: -12.89 meV to -1.83 meV
      hydro 1 s 0.85
      hydro 2 p 3.7
      hydro 2 s 1.2
      hydro 3 d 7
  #  "Third tier" - improvements: -0.25 meV to -0.12 meV
  #    hydro 4 f 11.2
  #    hydro 3 p 4.8
  #    hydro 4 d 9
  #    hydro 3 s 3.2
  #
  
  
  -----------------------------------------------------------------------
  Completed first pass over input file control.in .
  -----------------------------------------------------------------------
  
  
  -----------------------------------------------------------------------
  Parsing geometry.in (first pass over file, find array dimensions only).
  The contents of geometry.in will be repeated verbatim below
  unless switched off by setting 'verbatim_writeout .false.' .
  in the first line of geometry.in .
  -----------------------------------------------------------------------
  
  #=======================================================
  # FHI-aims file: qmdata/data/geoms/110.in
  # Created using the Atomic Simulation Environment (ASE)
  # Wed Sep 21 12:30:23 2022
  #=======================================================
  lattice_vector 5.0000000000000000 0.0000000000000000 0.0000000000000000
  lattice_vector 0.0000000000000000 5.0000000000000000 0.0000000000000000
  lattice_vector 0.0000000000000000 0.0000000000000000 5.0000000000000000
  atom 0.0446456400000000 -0.0000175100000000 0.0024907300000000 O
  atom -0.3542124500000000 -0.7333391800000000 -0.0197611100000000 H
  atom -0.3544041700000000 0.7336171700000000 -0.0197718000000000 H
  
  -----------------------------------------------------------------------
  Completed first pass over input file geometry.in .
  -----------------------------------------------------------------------
  

  Basic array size parameters:
  | Number of species                 :        2
  | Number of atoms                   :        3
  | Number of lattice vectors         :        3
  | Max. basis fn. angular momentum   :        4
  | Max. atomic/ionic basis occupied n:        2
  | Max. number of basis fn. types    :        2
  | Max. radial fns per species/type  :        8
  | Max. logarithmic grid size        :     1301
  | Max. radial integration grid size :       73
  | Max. angular integration grid size:      434
  | Max. angular grid division number :        8
  | Radial grid for Hartree potential :     1301
  | Number of spin channels           :        1

------------------------------------------------------------
          Reading file control.in.
------------------------------------------------------------
  XC: Using PBE gradient-corrected functionals.
  Spin treatment: No spin polarisation.
  Non-relativistic treatment of kinetic energy.
  Charge =   0.000000E+00: Neutral system requested explicitly.
  DFPT calculation will begin after the DFT/HF calculation.
  Convergence accuracy of self-consistent charge density:  0.1000E-05
  Found k-point grid:         1         1         1
  Threshold value for wave function integration:  0.1000E-07
 
  Reading configuration options for species O                   .
  | Found nuclear charge :   8.0000
  | Found atomic mass :    15.9994000000000      amu
  | Found l_max for Hartree potential  :   6
  | Found cutoff potl. onset [A], width [A], scale factor :    4.00000    2.00000    1.00000
  | Threshold for basis-dependent cutoff potential is   0.100000E-03
  | Found data for basic radial integration grid :    36 points, outermost radius =    7.000 A
  | Found multiplier for basic radial grid :   2
  | Found angular grid specification: user-specified.
  | Specified grid contains     6 separate shells.
  | Check grid settings after all constraints further below.
  | Found free-atom valence shell :  2 s   2.000
  | Found free-atom valence shell :  2 p   4.000
  | No ionic wave fns used. Skipping ion_occ.
  | No ionic wave fns used. Skipping ion_occ.
  | Found hydrogenic basis function :  2 p   1.800
  | Found hydrogenic basis function :  3 d   7.600
  | Found hydrogenic basis function :  3 s   6.400
  | Found hydrogenic basis function :  4 f  11.600
  | Found hydrogenic basis function :  3 p   6.200
  | Found hydrogenic basis function :  3 d   5.600
  | Found hydrogenic basis function :  5 g  17.600
  | Found hydrogenic basis function :  1 s   0.750
  Species O                   : Missing cutoff potential type.
  Defaulting to exp(1/x)/(1-x)^2 type cutoff potential.
  Species O : No 'logarithmic' tag. Using default grid for free atom:
  | Default logarithmic grid data [bohr] : 0.1000E-03 0.1000E+03 0.1012E+01
  Species O : On-site basis accuracy parameter (for Gram-Schmidt orthonormalisation) not specified.
  Using default value basis_acc =  0.1000000E-03.
  Species O                   : Using default innermost maximum threshold i_radial=  2 for radial functions.
  Species O                   : Default cutoff onset for free atom density etc. : 0.40000000E+01 AA.
  Species O                   : Basic radial grid will be enhanced according to radial_multiplier =   2, to contain    73 grid points.
 
  Reading configuration options for species H                   .
  | Found nuclear charge :   1.0000
  | Found atomic mass :    1.00794000000000      amu
  | Found l_max for Hartree potential  :   6
  | Found cutoff potl. onset [A], width [A], scale factor :    4.00000    2.00000    1.00000
  | Threshold for basis-dependent cutoff potential is   0.100000E-03
  | Found data for basic radial integration grid :    24 points, outermost radius =    7.000 A
  | Found multiplier for basic radial grid :   2
  | Found angular grid specification: user-specified.
  | Specified grid contains     6 separate shells.
  | Check grid settings after all constraints further below.
  | Found free-atom valence shell :  1 s   1.000
  | No ionic wave fns used. Skipping ion_occ.
  | Found hydrogenic basis function :  2 s   2.100
  | Found hydrogenic basis function :  2 p   3.500
  | Found hydrogenic basis function :  1 s   0.850
  | Found hydrogenic basis function :  2 p   3.700
  | Found hydrogenic basis function :  2 s   1.200
  | Found hydrogenic basis function :  3 d   7.000
  Species H                   : Missing cutoff potential type.
  Defaulting to exp(1/x)/(1-x)^2 type cutoff potential.
  Species H : No 'logarithmic' tag. Using default grid for free atom:
  | Default logarithmic grid data [bohr] : 0.1000E-03 0.1000E+03 0.1012E+01
  Species H : On-site basis accuracy parameter (for Gram-Schmidt orthonormalisation) not specified.
  Using default value basis_acc =  0.1000000E-03.
  Species H                   : Using default innermost maximum threshold i_radial=  2 for radial functions.
  Species H                   : Default cutoff onset for free atom density etc. : 0.40000000E+01 AA.
  Species H                   : Basic radial grid will be enhanced according to radial_multiplier =   2, to contain    49 grid points.
 
  Finished reading input file 'control.in'.
 
------------------------------------------------------------


------------------------------------------------------------
          Reading geometry description geometry.in.
------------------------------------------------------------
  | The smallest distance between any two atoms is         0.83507101 AA.
  | The first atom of this pair is atom number                      1 .
  | The second atom of this pair is atom number                     2 .
  | Wigner-Seitz cell of the first atom image           0     0     0 .
  | (The Wigner-Seitz cell of the second atom is 0 0 0  by definition.)

  Symmetry information by spglib:
  | Precision set to  0.1E-04
  | Number of Operations  : 1
  | Space group           : 1
  | International         : P1        i
  | Schoenflies           : C1^1
  Input structure read successfully.
  The structure contains        3 atoms,  and a total of         10.000 electrons.

  Input geometry:
  | Unit cell:
  |        5.00000000        0.00000000        0.00000000
  |        0.00000000        5.00000000        0.00000000
  |        0.00000000        0.00000000        5.00000000
  | Atomic structure:
  |       Atom                x [A]            y [A]            z [A]
  |    1: Species O             0.04464564       -0.00001751        0.00249073
  |    2: Species H            -0.35421245       -0.73333918       -0.01976111
  |    3: Species H            -0.35440417        0.73361717       -0.01977180

  Lattice parameters for 3D lattice (in Angstroms) :     5.000000    5.000000    5.000000
  Angle(s) between unit vectors (in degrees)       :    90.000000   90.000000   90.000000


  Quantities derived from the lattice vectors (in Angstrom^-1):
  | Reciprocal lattice vector 1:  1.256637  0.000000  0.000000
  | Reciprocal lattice vector 2:  0.000000  1.256637  0.000000
  | Reciprocal lattice vector 3:  0.000000  0.000000  1.256637
  | Unit cell volume                               :   0.125000E+03  Angstrom^3

  Fractional coordinates:
                         L1                L2                L3
       atom_frac         0.00892913       -0.00000350        0.00049815  O
       atom_frac        -0.07084249       -0.14666784       -0.00395222  H
       atom_frac        -0.07088083        0.14672343       -0.00395436  H

 
  Finished reading input file 'geometry.in'.
 

 
  Consistency checks for stacksize environment parameter are next.
 
  | Maximum stacksize for task 0: unlimited
  | Maximum stacksize for task 1: unlimited
  | Maximum stacksize for task 2: unlimited
  | Maximum stacksize for task 3: unlimited
  | Maximum stacksize for task 4: unlimited
  | Maximum stacksize for task 5: unlimited
  | Maximum stacksize for task 6: unlimited
  | Maximum stacksize for task 7: unlimited
  | Maximum stacksize for task 8: unlimited
  | Maximum stacksize for task 9: unlimited
  | Maximum stacksize for task 10: unlimited
  | Maximum stacksize for task 11: unlimited
  | Maximum stacksize for task 12: unlimited
  | Maximum stacksize for task 13: unlimited
  | Maximum stacksize for task 14: unlimited
  | Maximum stacksize for task 15: unlimited
  | Current stacksize for task 0: unlimited
  | Current stacksize for task 1: unlimited
  | Current stacksize for task 2: unlimited
  | Current stacksize for task 3: unlimited
  | Current stacksize for task 4: unlimited
  | Current stacksize for task 5: unlimited
  | Current stacksize for task 6: unlimited
  | Current stacksize for task 7: unlimited
  | Current stacksize for task 8: unlimited
  | Current stacksize for task 9: unlimited
  | Current stacksize for task 10: unlimited
  | Current stacksize for task 11: unlimited
  | Current stacksize for task 12: unlimited
  | Current stacksize for task 13: unlimited
  | Current stacksize for task 14: unlimited
  | Current stacksize for task 15: unlimited
 
  Consistency checks for the contents of control.in are next.
 
  MPI_IN_PLACE appears to work with this MPI implementation.
  | Keeping use_mpi_in_place .true. (see manual).
  Target number of points in a grid batch is not set. Defaulting to  100
  Method for grid partitioning is not set. Defaulting to parallel hash+maxmin partitioning.
  Batch size limit is not set. Defaulting to    200
  By default, will store active basis functions for each batch.
  If in need of memory, prune_basis_once .false. can be used to disable this option.
  communication_type for Hartree potential was not specified.
  Defaulting to calc_hartree .
  Defaulting to Pulay charge density mixer.
  Pulay mixer: Number of relevant iterations not set.
  Defaulting to    8 iterations.
  Pulay mixer: Number of initial linear mixing iterations not set.
  Defaulting to    0 iterations.
  Work space size for distributed Hartree potential not set.
  Defaulting to   0.200000E+03 MB.
  Mixing parameter for charge density mixing has not been set.
  Using default: charge_mix_param =     0.0500.
  The mixing parameter will be adjusted in iteration number     2 of the first full s.c.f. cycle only.
  Algorithm-dependent basis array size parameters:
  | n_max_pulay                         :        8
  Maximum number of self-consistency iterations not provided.
  Presetting  1000 iterations.
  Presetting      1001 iterations before the initial mixing cycle
  is restarted anyway using the sc_init_iter criterion / keyword.
  Presetting a factor      1.000 between actual scf density residual
  and density convergence criterion sc_accuracy_rho below which sc_init_iter
  takes no effect.
  Calculation of forces was not defined in control.in. No forces will be calculated.
  Geometry relaxation not requested: no relaxation will be performed.
  No accuracy limit for integral partition fn. given. Defaulting to  0.1000E-14.
  No occupation type (smearing scheme) given. Defaulting to Gaussian broadening, width =  0.1000E-01 eV.
  The width will be adjusted in iteration number     2 of the first full s.c.f. cycle only.
  S.C.F. convergence parameters will be adjusted in iteration number     2 of the first full s.c.f. cycle only.
  No accuracy for occupation numbers given. Defaulting to  0.1000E-12.
  No threshold value for occupation numbers given. Defaulting to  0.0000E+00.
  No accuracy for fermi level given. Defaulting to  0.1000E-19.
  Maximum # of iterations to find E_F not set. Defaulting to  200.
  Preferred method for the eigenvalue solver ('KS_method') not specified in 'control.in'.
  Calling BLACS routine to test compilation state
  Since ScaLAPACK support is enabled, defaulting to ELPA (via ELSI).
  Will not use alltoall communication since running on < 1024 CPUs.
  Threshold for basis singularities not set.
  Default threshold for basis singularities:  0.1000E-04
  partition_type (choice of integration weights) for integrals was not specified.
  | Using a version of the partition function of Stratmann and coworkers ('stratmann_sparse').
  | At each grid point, the set of atoms used to build the partition table is smoothly restricted to
  | only those atoms whose free-atom density would be non-zero at that grid point.
  Partitioning for Hartree potential was not defined. Using partition_type for integrals.
  | Adjusted default value of keyword multip_moments_threshold to:       0.10000000E-11
  | This value may affect high angular momentum components of the Hartree potential in periodic systems.
  Angular momentum expansion for Kerker preconditioner not set explicitly.
  | Using default value of   0
  No explicit requirement for turning off preconditioner.
  | By default, it will be turned off when the charge convergence reaches
  | sc_accuracy_rho  =   0.100000E-05
  No special mixing parameter while Kerker preconditioner is on.
  Using default: charge_mix_param =     0.0500.
  No q(lm)/r^(l+1) cutoff set for long-range Hartree potential.
  | Using default value of  0.100000E-09 .
  | Verify using the multipole_threshold keyword.
  Defaulting to new monopole extrapolation.
  Density update method: automatic selection selected.
  Using density matrix based charge density update.
  Using density matrix based charge density update.
  Using packed matrix style: index .
  Defaulting to use time-reversal symmetry for k-point grid.
  Charge integration errors on the 3D integration grid will be compensated
  by explicit normalization and distribution of residual charges.
  Use the "compensate_multipole_errors" flag to change this behaviour.
 
  Consistency checks for the contents of geometry.in are next.
 

  Range separation radius for Ewald summation (hartree_convergence_parameter):      5.00000000 bohr.
  Number of empty states per atom not set in control.in .
  | Since you are using a method that relies on the unoccupied spectrum
  | (MP2,GW,RPA et al.), will use the full Hamiltonian size (see below)
  | as the max. possible number of states (occupied plus empty).

  Structure-dependent array size parameters: 
  | Maximum number of distinct radial functions  :       18
  | Maximum number of basis functions            :       69
  | Number of Kohn-Sham states (occupied + empty):       69
------------------------------------------------------------

------------------------------------------------------------
          Preparing all fixed parts of the calculation.
------------------------------------------------------------
  Determining machine precision:
    2.225073858507201E-308
  Setting up grids for atomic and cluster calculations.

  Creating wave function, potential, and density for free atoms.
  Runtime choices for atomic solver:
  | atomic solver xc        : PBE
  | compute density gradient: 1
  | compute kinetic density : F

  Species: O

  List of occupied orbitals and eigenvalues:
    n    l              occ      energy [Ha]    energy [eV]
    1    0           2.0000       -18.898576      -514.2564
    2    0           2.0000        -0.878795       -23.9132
    2    1           4.0000        -0.332075        -9.0362


  Species: H

  List of occupied orbitals and eigenvalues:
    n    l              occ      energy [Ha]    energy [eV]
    1    0           1.0000        -0.238382        -6.4867


  Adding cutoff potential to free-atom effective potential.
  Creating fixed part of basis set: Ionic, confined, hydrogenic.
 
  O                    hydrogenic:
 
  List of hydrogenic basis orbitals: 
    n    l      effective z      eigenvalue [eV]  inner max. [A]     outer max. [A]     outer radius [A]   
    2    1         1.800000       -11.0118           1.178562           1.178562           5.567066
    3    2         7.600000       -87.3182           0.624125           0.624125           3.764702
    3    0         6.400000       -61.9209           0.061167           1.081902           4.522403
    4    3        11.600000      -114.4238           0.731631           0.731631           3.811008
    3    1         6.200000       -58.1113           0.255680           1.030270           4.522403
    3    2         5.600000       -47.4081           0.847233           0.847233           4.578029
    5    4        17.600000      -168.5799           0.749740           0.749740           3.629133
    1    0         0.750000        -7.6499           0.705284           0.705284           5.567066
 
 
  H                    hydrogenic:
 
  List of hydrogenic basis orbitals: 
    n    l      effective z      eigenvalue [eV]  inner max. [A]     outer max. [A]     outer radius [A]   
    2    0         2.100000       -14.9965           0.193243           1.317208           5.573719
    2    1         3.500000       -41.6672           0.602369           0.602369           4.259334
    1    0         0.850000        -9.8292           0.624871           0.624871           5.573719
    2    1         3.700000       -46.5653           0.573622           0.573622           4.105953
    2    0         1.200000        -4.5995           0.334980           2.228188           5.642276
    3    2         7.000000       -74.0753           0.680699           0.680699           3.958095
 
  Creating atomic-like basis functions for current effective potential.

  Species O                   :

  List of atomic basis orbitals and eigenvalues:
    n    l      energy [Ha]    energy [eV]    outer radius [A]
    1    0       -18.898576      -514.2564       1.807907
    2    0        -0.878795       -23.9132       5.366593
    2    1        -0.332075        -9.0362       5.499423


  Species H                   :

  List of atomic basis orbitals and eigenvalues:
    n    l      energy [Ha]    energy [eV]    outer radius [A]
    1    0        -0.238382        -6.4867       5.573719

  Assembling full basis from fixed parts.
  | Species O :   atomic orbital   1 s accepted.
  | Species O :    hydro orbital   3 s accepted.
  | Species O :   atomic orbital   2 s accepted.
  | Species O :    hydro orbital   1 s accepted.
  | Species O :    hydro orbital   3 p accepted.
  | Species O :   atomic orbital   2 p accepted.
  | Species O :    hydro orbital   2 p accepted.
  | Species O :    hydro orbital   3 d accepted.
  | Species O :    hydro orbital   3 d accepted.
  | Species O :    hydro orbital   4 f accepted.
  | Species O :    hydro orbital   5 g accepted.
  | Species H :   atomic orbital   1 s accepted.
  | Species H :    hydro orbital   2 s accepted.
  | Species H :    hydro orbital   1 s accepted.
  | Species H :    hydro orbital   2 s accepted.
  | Species H :    hydro orbital   2 p accepted.
  | Species H :    hydro orbital   2 p accepted.
  | Species H :    hydro orbital   3 d accepted.
 
  Basis size parameters after reduction:
  | Total number of radial functions:       18
  | Total number of basis functions :       69
 
  Per-task memory consumption for arrays in subroutine allocate_ext:
  |           4.499020MB.
  Testing on-site integration grid accuracy.
  |  Species  Function  <phi|h_atom|phi> (log., in eV)  <phi|h_atom|phi> (rad., in eV)
           1        1               -514.2564144315               -514.2564099626
           1        2                 15.1726678541                 15.1726530877
           1        3                -21.5447785304                -21.5447874973
           1        4                 14.4944558459                 14.4944698284
           1        5                 20.8882174564                 20.8882178906
           1        6                 -2.4850315909                 -2.4850322289
           1        7                 13.8600193195                 13.8599826966
           1        8                 45.8243383616                 45.8243383675
           1        9                 52.1840606465                 52.1840622440
           1       10                 85.4074185510                 85.4074185819
           1       11                142.0983717302                142.0983717339
           2       12                 -6.4869821809                 -6.4870742227
           2       13                 13.5044133542                 13.5041049177
           2       14                 32.7854418792                 32.7779770519
           2       15                 33.7995553101                 33.7152624900 ***
           2       16                 28.8558651799                 28.8558652046
           2       17                 59.6361831893                 59.6362535845
           2       18                 60.2733718049                 60.2733715484
 * Note: Onsite integrals marked "***" above are less accurate than
 * onsite_accuracy_threshold =    0.03000 eV. Usually, this is harmless.
 * When in doubt, tighten the "radial" and/or "radial_multiplier" flags to check.

  Preparing densities etc. for the partition functions (integrals / Hartree potential).

  Preparations completed.
  max(cpu_time)          :      0.136 s.
  Wall clock time (cpu1) :      0.140 s.
------------------------------------------------------------

  Initializing index lists of integration centers etc. from given atomic structure:
  Mapping all atomic coordinates to central unit cell.

  Initializing the k-points
  Using symmetry for reducing the k-points
  | k-points reduced from:        1 to        1
  | Number of k-points                             :         1
  | Consuming          0 KiB for k_phase_exx.
  The eigenvectors in the calculations are REAL.
  | Number of basis functions in the Hamiltonian integrals :      1571
  | Number of basis functions in a single unit cell        :        69
  | Number of centers in hartree potential         :       653
  | Number of centers in hartree multipole         :       243
  | Number of centers in electron density summation:       183
  | Number of centers in basis integrals           :       211
  | Number of centers in integrals                 :        81
  | Number of centers in hamiltonian               :       183
  | Consuming          1 KiB for k_phase.
  | Number of super-cells (origin) [n_cells]                     :        1331
  | Number of super-cells (after PM_index) [n_cells]             :          66
  | Number of super-cells in hamiltonian [n_cells_in_hamiltonian]:          66
  | Size of matrix packed + index [n_hamiltonian_matrix_size] :       62275
  | Size of matrix packed + index (no_symmetry):      122552

------------------------------------------------------------
          Begin self-consistency loop: Initialization.

          Date     :  20221003, Time     :  095753.485
------------------------------------------------------------
  | Estimated reciprocal-space cutoff momentum G_max:         1.90186217 bohr^-1 .
  | Reciprocal lattice points for long-range Hartree potential:      92
  Using simple linear distribution as default method for k-point parallelism.
  * Using 16 tasks for Scalapack Eigenvalue solver.
  Detailed listing of tasks and assigned k-points:
   Task     0 k-point     1 on mpsd-hpc-ibm-056
   Task     1 k-point     1 on mpsd-hpc-ibm-056
   Task     2 k-point     1 on mpsd-hpc-ibm-056
   Task     3 k-point     1 on mpsd-hpc-ibm-056
   Task     4 k-point     1 on mpsd-hpc-ibm-057
   Task     5 k-point     1 on mpsd-hpc-ibm-057
   Task     6 k-point     1 on mpsd-hpc-ibm-057
   Task     7 k-point     1 on mpsd-hpc-ibm-057
   Task     8 k-point     1 on mpsd-hpc-ibm-058
   Task     9 k-point     1 on mpsd-hpc-ibm-058
   Task    10 k-point     1 on mpsd-hpc-ibm-058
   Task    11 k-point     1 on mpsd-hpc-ibm-058
   Task    12 k-point     1 on mpsd-hpc-ibm-059
   Task    13 k-point     1 on mpsd-hpc-ibm-059
   Task    14 k-point     1 on mpsd-hpc-ibm-059
   Task    15 k-point     1 on mpsd-hpc-ibm-059
  K-point:     1 Tasks:    16 split into      4 X      4 BLACS grid
  Calculating block size based on n_basis =           69  max_nprow =            4  max_npcol =            4
  ScaLAPACK block size set to:           16
  Allocating        0.003 MB for ovlp
  Allocating        0.003 MB for ham
  Allocating        0.003 MB for eigenvec
  Required Scalapack workspace - INTEGER:            1  REAL:             1
  Partitioning the integration grid into batches with parallel hashing+maxmin method.
  | Number of batches:      484
  | Maximal batch size:     167
  | Minimal batch size:      50
  | Average batch size:      96.880
  | Standard deviation of batch sizes:      24.248

  Integration load balanced across    16 MPI tasks.
  Work distribution over tasks is as follows:
  Task     0 has       2978 integration points.
  Task     1 has       2906 integration points.
  Task     2 has       2914 integration points.
  Task     3 has       2902 integration points.
  Task     4 has       2929 integration points.
  Task     5 has       2930 integration points.
  Task     6 has       2973 integration points.
  Task     7 has       2914 integration points.
  Task     8 has       2968 integration points.
  Task     9 has       2935 integration points.
  Task    10 has       2901 integration points.
  Task    11 has       2944 integration points.
  Task    12 has       2906 integration points.
  Task    13 has       2919 integration points.
  Task    14 has       2933 integration points.
  Task    15 has       2938 integration points.
  Initializing partition tables, free-atom densities, potentials, etc. across the integration grid (initialize_grid_storage).
  | initialize_grid_storage: Actual outermost partition radius vs. multipole_radius_free
  | (-- VB: in principle, multipole_radius_free should be larger, hence this output)
  | Species        1: Confinement radius =              6.000000000000000 AA, multipole_radius_free =              6.064445521808699 AA.
  | Species        1: outer_partition_radius set to              6.064445521808699 AA .
  | Species        2: Confinement radius =              6.000000000000000 AA, multipole_radius_free =              6.071692442739658 AA.
  | Species        2: outer_partition_radius set to              6.071692442739658 AA .
  | The sparse table of interatomic distances needs        428.34 kbyte instead of       356.17 kbyte of memory.
  | Using the partition_type stratmann_smoother will reduce your memory usage.
  | Net number of integration points:    46890
  | of which are non-zero points    :    37181
  | Numerical average free-atom electrostatic potential    :     -1.29049438 eV
  Renormalizing the initial density to the exact electron count on the 3D integration grid.
  | Initial density: Formal number of electrons (from input files) :      10.0000000000
  | Integrated number of electrons on 3D grid     :      10.0000088373
  | Charge integration error                      :       0.0000088373
  | Normalization factor for density and gradient :       0.9999991163
  Renormalizing the free-atom superposition density to the exact electron count on the 3D integration grid.
  | Formal number of electrons (from input files) :      10.0000000000
  | Integrated number of electrons on 3D grid     :      10.0000088373
  | Charge integration error                      :       0.0000088373
  | Normalization factor for density and gradient :       0.9999991163
  Obtaining max. number of non-zero basis functions in each batch (get_n_compute_maxes).
  | Maximal number of non-zero basis functions:      372 in task     0
  | Maximal number of non-zero basis functions:      345 in task     1
  | Maximal number of non-zero basis functions:      346 in task     2
  | Maximal number of non-zero basis functions:      389 in task     3
  | Maximal number of non-zero basis functions:      382 in task     4
  | Maximal number of non-zero basis functions:      432 in task     5
  | Maximal number of non-zero basis functions:      389 in task     6
  | Maximal number of non-zero basis functions:      443 in task     7
  | Maximal number of non-zero basis functions:      374 in task     8
  | Maximal number of non-zero basis functions:      362 in task     9
  | Maximal number of non-zero basis functions:      357 in task    10
  | Maximal number of non-zero basis functions:      402 in task    11
  | Maximal number of non-zero basis functions:      434 in task    12
  | Maximal number of non-zero basis functions:      396 in task    13
  | Maximal number of non-zero basis functions:      350 in task    14
  | Maximal number of non-zero basis functions:      441 in task    15
  Integrating Hamiltonian matrix: batch-based integration.
  Time summed over all CPUs for integration: real work        1.066 s, elapsed        1.112 s
  Integrating overlap matrix.
  Time summed over all CPUs for integration: real work        0.602 s, elapsed        0.639 s
  Deallocating overlap matrix.

  Updating Kohn-Sham eigenvalues and eigenvectors using ELSI and the ELPA eigensolver.
  Singularity check in k-point 1 (analysis for other k-points may follow below):
  Overlap matrix is not singular
  | Lowest and highest eigenvalues :  0.1625E-03,  0.6955E+01
  Finished singularity check of overlap matrix
  | Time :     0.003 s
  Starting ELPA eigensolver
  Finished Cholesky decomposition
  | Time :     0.003 s
  Finished transformation to standard eigenproblem
  | Time :     0.001 s
  Finished solving standard eigenproblem
  | Time :     0.004 s
  Finished back-transformation of eigenvectors
  | Time :     0.001 s

  Obtaining occupation numbers and electronic chemical potential using ELSI.
  | Note that, for insulating systems, the printed 'chemical potential' value is not uniquely defined.
  | It can be anywhere in the energy gap, as long as it correctly separates occupied and unoccupied states.
  | In systems with a gap, the physically relevant chemical potential is the VBM or HOMO.

  | Chemical potential (Fermi level):    -6.05667363 eV
  Writing Kohn-Sham eigenvalues.

  State    Occupation    Eigenvalue [Ha]    Eigenvalue [eV]
      1       2.00000         -19.075579         -519.07292
      2       2.00000          -1.194901          -32.51491
      3       2.00000          -0.771388          -20.99054
      4       2.00000          -0.533693          -14.52253
      5       2.00000          -0.487384          -13.26239
      6       0.00000          -0.102717           -2.79507
      7       0.00000           0.096441            2.62428
      8       0.00000           0.110595            3.00943
      9       0.00000           0.182939            4.97802
     10       0.00000           0.192037            5.22559
     11       0.00000           0.228837            6.22696
     12       0.00000           0.346743            9.43535
     13       0.00000           0.419010           11.40186
     14       0.00000           0.444706           12.10106
     15       0.00000           0.492805           13.40991
     16       0.00000           0.560611           15.25500
     17       0.00000           0.674810           18.36252
     18       0.00000           0.682963           18.58437
     19       0.00000           0.870211           23.67966
     20       0.00000           1.014262           27.59947
     21       0.00000           1.032631           28.09932
     22       0.00000           1.076877           29.30330
     23       0.00000           1.139436           31.00563
     24       0.00000           1.191015           32.40916
     25       0.00000           1.400807           38.11789
     26       0.00000           1.456811           39.64183
     27       0.00000           1.460773           39.74965
     28       0.00000           1.829923           49.79473
     29       0.00000           2.142698           58.30579
     30       0.00000           2.196952           59.78209
     31       0.00000           2.344215           63.78933
     32       0.00000           2.367730           64.42920
     33       0.00000           2.396877           65.22233
     34       0.00000           2.455239           66.81045
     35       0.00000           2.509035           68.27430
     36       0.00000           2.754518           74.95424
     37       0.00000           2.873292           78.18626
     38       0.00000           2.915887           79.34532
     39       0.00000           3.137825           85.38455
     40       0.00000           3.411725           92.83777
     41       0.00000           3.437654           93.54332
     42       0.00000           3.448282           93.83254
     43       0.00000           3.654855           99.45365
     44       0.00000           3.664719           99.72207
     45       0.00000           3.683367          100.22951
     46       0.00000           3.728189          101.44918
     47       0.00000           3.949401          107.46866
     48       0.00000           4.125648          112.26459
     49       0.00000           4.404628          119.85601
     50       0.00000           4.491839          122.22916
     51       0.00000           4.601152          125.20371
     52       0.00000           5.118321          139.27661
     53       0.00000           5.325001          144.90065
     54       0.00000           5.480292          149.12634
     55       0.00000           5.737452          156.12402
     56       0.00000           5.820590          158.38630
     57       0.00000           5.902863          160.62507
     58       0.00000           5.979791          162.71840
     59       0.00000           6.149664          167.34087
     60       0.00000           6.499729          176.86662
     61       0.00000           6.574295          178.89567
     62       0.00000           6.934290          188.69164
     63       0.00000           8.018789          218.20236
     64       0.00000           8.046899          218.96726
     65       0.00000           8.063842          219.42830
     66       0.00000           8.346441          227.11820
     67       0.00000           8.739057          237.80183
     68       0.00000           9.529329          259.30625
     69       0.00000          10.353495          281.73293

  Highest occupied state (VBM) at    -13.26238878 eV (relative to internal zero)
  | Occupation number:      2.00000000
  | K-point:       1 at    0.000000    0.000000    0.000000 (in units of recip. lattice)

  Lowest unoccupied state (CBM) at    -2.79506535 eV (relative to internal zero)
  | Occupation number:      0.00000000
  | K-point:       1 at    0.000000    0.000000    0.000000 (in units of recip. lattice)

  ESTIMATED overall HOMO-LUMO gap:     10.46732343 eV between HOMO at k-point 1 and LUMO at k-point 1
  The gap value is above 0.2 eV. Unless you are using a very sparse k-point grid,
  this system is most likely an insulator or a semiconductor.
  Calculating total energy contributions from superposition of free atom densities.

  Total energy components:
  | Sum of eigenvalues            :         -44.12589069 Ha       -1200.72657788 eV
  | XC energy correction          :          -9.07653901 Ha        -246.98519292 eV
  | XC potential correction       :          11.67296538 Ha         317.63754916 eV
  | Free-atom electrostatic energy:         -34.92237720 Ha        -950.28623370 eV
  | Hartree energy correction     :           0.00000000 Ha           0.00000000 eV
  | Entropy correction            :           0.00000000 Ha           0.00000000 eV
  | ---------------------------
  | Total energy                  :         -76.45184152 Ha       -2080.36045534 eV
  | Total energy, T -> 0          :         -76.45184152 Ha       -2080.36045534 eV  <-- do not rely on this value for anything but (periodic) metals
  | Electronic free energy        :         -76.45184152 Ha       -2080.36045534 eV

  Derived energy quantities:
  | Kinetic energy                :          75.60060923 Ha        2057.19724610 eV
  | Electrostatic energy          :        -142.97591174 Ha       -3890.57250852 eV
  | Energy correction for multipole
  | error in Hartree potential    :           0.00000000 Ha           0.00000000 eV
  | Sum of eigenvalues per atom                           :        -400.24219263 eV
  | Total energy (T->0) per atom                          :        -693.45348511 eV  <-- do not rely on this value for anything but (periodic) metals
  | Electronic free energy per atom                       :        -693.45348511 eV
  Initialize hartree_potential_storage
  Max. number of atoms included in rho_multipole:            3

  End scf initialization - timings             :  max(cpu_time)    wall_clock(cpu1)
  | Time for scf. initialization                :        0.280 s           0.277 s
  | Boundary condition initialization           :        0.048 s           0.047 s
  | Integration                                 :        0.116 s           0.114 s
  | Solution of K.-S. eqns.                     :        0.032 s           0.031 s
  | Grid partitioning                           :        0.032 s           0.031 s
  | Preloading free-atom quantities on grid     :        0.084 s           0.081 s
  | Free-atom superposition energy              :        0.012 s           0.011 s
  | Total energy evaluation                     :        0.000 s           0.001 s

  Partial memory accounting:
  | Current value for overall tracked memory usage:
  |   Minimum:        0.719 MB (on task  5)
  |   Maximum:        0.723 MB (on task  0)
  |   Average:        0.720 MB
  | Peak value for overall tracked memory usage:
  |   Minimum:        3.431 MB (on task  1 after allocating wave)
  |   Maximum:        4.395 MB (on task  7 after allocating wave)
  |   Average:        3.848 MB
  | Largest tracked array allocation so far:
  |   Minimum:        0.908 MB (hamiltonian_shell on task  1)
  |   Maximum:        1.497 MB (hamiltonian_shell on task  7)
  |   Average:        1.159 MB
  Note:  These values currently only include a subset of arrays which are explicitly tracked.
  The "true" memory usage will be greater.
------------------------------------------------------------
  Evaluating new KS density using the density matrix
  Evaluating density matrix
  Finished density matrix calculation
  | Time :     0.000 s
  Time summed over all CPUs for getting density from density matrix: real work        1.993 s, elapsed        2.115 s
  Integration grid: deviation in total charge (<rho> - N_e) =   0.000000E+00

  Time for density update prior                :  max(cpu_time)    wall_clock(cpu1)
  | self-consistency iterative process          :        0.140 s           0.135 s

------------------------------------------------------------
          Begin self-consistency iteration #    1

  Date     :  20221003, Time     :  095753.901
------------------------------------------------------------
  Pulay mixing of updated and previous charge densities.
  Renormalizing the density to the exact electron count on the 3D integration grid.
  | Formal number of electrons (from input files) :      10.0000000000
  | Integrated number of electrons on 3D grid     :       9.9996423853
  | Charge integration error                      :      -0.0003576147
  | Normalization factor for density and gradient :       1.0000357627

  Evaluating partitioned Hartree potential by multipole expansion.
  | Original multipole sum: apparent total charge =   0.271036E-14
  | Sum of charges compensated after spline to logarithmic grids =   0.588395E-07
  | Analytical far-field extrapolation by fixed multipoles:
  | Hartree multipole sum: apparent total charge =   0.269499E-14
  Summing up the Hartree potential.
  Time summed over all CPUs for potential: real work        2.421 s, elapsed        2.808 s
  | RMS charge density error from multipole expansion :   0.155741E-03
  | Average real-space part of the electrostatic potential :      0.01147261 eV

  Integrating Hamiltonian matrix: batch-based integration.
  Time summed over all CPUs for integration: real work        1.047 s, elapsed        1.089 s

  Updating Kohn-Sham eigenvalues and eigenvectors using ELSI and the ELPA eigensolver.
  Starting ELPA eigensolver
  Finished transformation to standard eigenproblem
  | Time :     0.001 s
  Finished solving standard eigenproblem
  | Time :     0.004 s
  Finished back-transformation of eigenvectors
  | Time :     0.001 s

  Obtaining occupation numbers and electronic chemical potential using ELSI.
  | Note that, for insulating systems, the printed 'chemical potential' value is not uniquely defined.
  | It can be anywhere in the energy gap, as long as it correctly separates occupied and unoccupied states.
  | In systems with a gap, the physically relevant chemical potential is the VBM or HOMO.

  | Chemical potential (Fermi level):    -5.45670129 eV
  Writing Kohn-Sham eigenvalues.

  State    Occupation    Eigenvalue [Ha]    Eigenvalue [eV]
      1       2.00000         -19.038667         -518.06849
      2       2.00000          -1.178114          -32.05810
      3       2.00000          -0.756075          -20.57384
      4       2.00000          -0.516322          -14.04985
      5       2.00000          -0.469826          -12.78462
      6       0.00000          -0.101362           -2.75821
      7       0.00000           0.099760            2.71460
      8       0.00000           0.113636            3.09219
      9       0.00000           0.186309            5.06973
     10       0.00000           0.195008            5.30644
     11       0.00000           0.231580            6.30162
     12       0.00000           0.349787            9.51820
     13       0.00000           0.421527           11.47033
     14       0.00000           0.448359           12.20046
     15       0.00000           0.496952           13.52274
     16       0.00000           0.565336           15.38357
     17       0.00000           0.680375           18.51395
     18       0.00000           0.687293           18.70220
     19       0.00000           0.872659           23.74625
     20       0.00000           1.018927           27.72641
     21       0.00000           1.036930           28.21629
     22       0.00000           1.081534           29.43004
     23       0.00000           1.144037           31.13083
     24       0.00000           1.199538           32.64109
     25       0.00000           1.412961           38.44862
     26       0.00000           1.466655           39.90971
     27       0.00000           1.467011           39.91939
     28       0.00000           1.837115           49.99043
     29       0.00000           2.149831           58.49986
     30       0.00000           2.207116           60.05869
     31       0.00000           2.351212           63.97974
     32       0.00000           2.374693           64.61868
     33       0.00000           2.404299           65.42430
     34       0.00000           2.461825           66.98967
     35       0.00000           2.521836           68.62264
     36       0.00000           2.763157           75.18933
     37       0.00000           2.878319           78.32306
     38       0.00000           2.923341           79.54817
     39       0.00000           3.150937           85.74136
     40       0.00000           3.419889           93.05992
     41       0.00000           3.448112           93.82791
     42       0.00000           3.456397           94.05335
     43       0.00000           3.663022           99.67591
     44       0.00000           3.671057           99.89456
     45       0.00000           3.695350          100.55560
     46       0.00000           3.735091          101.63700
     47       0.00000           3.962198          107.81690
     48       0.00000           4.131063          112.41195
     49       0.00000           4.415595          120.15445
     50       0.00000           4.500950          122.47708
     51       0.00000           4.610573          125.46008
     52       0.00000           5.129581          139.58301
     53       0.00000           5.335371          145.18283
     54       0.00000           5.491291          149.42564
     55       0.00000           5.747554          156.39890
     56       0.00000           5.829824          158.63758
     57       0.00000           5.913176          160.90570
     58       0.00000           5.988394          162.95248
     59       0.00000           6.160877          167.64601
     60       0.00000           6.511430          177.18502
     61       0.00000           6.588537          179.28321
     62       0.00000           6.946525          189.02456
     63       0.00000           8.032011          218.56215
     64       0.00000           8.060977          219.35034
     65       0.00000           8.077016          219.78678
     66       0.00000           8.360444          227.49926
     67       0.00000           8.750088          238.10201
     68       0.00000           9.542871          259.67474
     69       0.00000          10.367205          282.10601

  Highest occupied state (VBM) at    -12.78461931 eV (relative to internal zero)
  | Occupation number:      2.00000000
  | K-point:       1 at    0.000000    0.000000    0.000000 (in units of recip. lattice)

  Lowest unoccupied state (CBM) at    -2.75820952 eV (relative to internal zero)
  | Occupation number:      0.00000000
  | K-point:       1 at    0.000000    0.000000    0.000000 (in units of recip. lattice)

  ESTIMATED overall HOMO-LUMO gap:     10.02640978 eV between HOMO at k-point 1 and LUMO at k-point 1
  The gap value is above 0.2 eV. Unless you are using a very sparse k-point grid,
  this system is most likely an insulator or a semiconductor.

  Total energy components:
  | Sum of eigenvalues            :         -43.91800753 Ha       -1195.06978935 eV
  | XC energy correction          :          -9.10109309 Ha        -247.65334337 eV
  | XC potential correction       :          11.70482073 Ha         318.50437734 eV
  | Free-atom electrostatic energy:         -34.92237720 Ha        -950.28623370 eV
  | Hartree energy correction     :          -0.19621814 Ha          -5.33936725 eV
  | Entropy correction            :           0.00000000 Ha           0.00000000 eV
  | ---------------------------
  | Total energy                  :         -76.43287523 Ha       -2079.84435632 eV
  | Total energy, T -> 0          :         -76.43287523 Ha       -2079.84435632 eV  <-- do not rely on this value for anything but (periodic) metals
  | Electronic free energy        :         -76.43287523 Ha       -2079.84435632 eV

  Derived energy quantities:
  | Kinetic energy                :          75.77240891 Ha        2061.87215339 eV
  | Electrostatic energy          :        -143.10419105 Ha       -3894.06316634 eV
  | Energy correction for multipole
  | error in Hartree potential    :          -0.00023036 Ha          -0.00626854 eV
  | Sum of eigenvalues per atom                           :        -398.35659645 eV
  | Total energy (T->0) per atom                          :        -693.28145211 eV  <-- do not rely on this value for anything but (periodic) metals
  | Electronic free energy per atom                       :        -693.28145211 eV
  Evaluating new KS density using the density matrix
  Evaluating density matrix
  Finished density matrix calculation
  | Time :     0.000 s
  Time summed over all CPUs for getting density from density matrix: real work        2.020 s, elapsed        2.340 s
  Integration grid: deviation in total charge (<rho> - N_e) =   1.776357E-15

  Self-consistency convergence accuracy:
  | Change of charge density      :  0.3923E+00
  | Change of unmixed KS density  :  0.9137E+01
  | Change of sum of eigenvalues  :  0.5657E+01 eV
  | Change of total energy        :  0.5161E+00 eV


------------------------------------------------------------
  End self-consistency iteration #     1       :  max(cpu_time)    wall_clock(cpu1)
  | Time for this iteration                     :        0.500 s           0.499 s
  | Charge density update                       :        0.148 s           0.149 s
  | Density mixing & preconditioning            :        0.080 s           0.077 s
  | Hartree multipole update                    :        0.004 s           0.004 s
  | Hartree multipole summation                 :        0.188 s           0.185 s
  | Integration                                 :        0.072 s           0.071 s
  | Solution of K.-S. eqns.                     :        0.008 s           0.006 s
  | Total energy evaluation                     :        0.008 s           0.002 s

  Partial memory accounting:
  | Current value for overall tracked memory usage:
  |   Minimum:        0.719 MB (on task  5)
  |   Maximum:        0.723 MB (on task  0)
  |   Average:        0.720 MB
  | Peak value for overall tracked memory usage:
  |   Minimum:        4.267 MB (on task  1 after allocating gradient_basis_wave)
  |   Maximum:        5.603 MB (on task  7 after allocating gradient_basis_wave)
  |   Average:        4.848 MB
  | Largest tracked array allocation so far:
  |   Minimum:        1.319 MB (gradient_basis_wave on task  1)
  |   Maximum:        1.693 MB (gradient_basis_wave on task  7)
  |   Average:        1.484 MB
  Note:  These values currently only include a subset of arrays which are explicitly tracked.
  The "true" memory usage will be greater.
------------------------------------------------------------

------------------------------------------------------------
          Begin self-consistency iteration #    2

  Date     :  20221003, Time     :  095754.403
------------------------------------------------------------
  Pulay mixing of updated and previous charge densities.
  Renormalizing the density to the exact electron count on the 3D integration grid.
  | Formal number of electrons (from input files) :      10.0000000000
  | Integrated number of electrons on 3D grid     :       9.9966303740
  | Charge integration error                      :      -0.0033696260
  | Normalization factor for density and gradient :       1.0003370762

  Evaluating partitioned Hartree potential by multipole expansion.
  | Original multipole sum: apparent total charge =  -0.280414E-14
  | Sum of charges compensated after spline to logarithmic grids =   0.576167E-06
  | Analytical far-field extrapolation by fixed multipoles:
  | Hartree multipole sum: apparent total charge =  -0.255816E-14
  Summing up the Hartree potential.
  Time summed over all CPUs for potential: real work        2.819 s, elapsed        3.177 s
  | RMS charge density error from multipole expansion :   0.151885E-02
  | Average real-space part of the electrostatic potential :      0.11377845 eV

  Integrating Hamiltonian matrix: batch-based integration.
  Time summed over all CPUs for integration: real work        1.039 s, elapsed        1.087 s

  Updating Kohn-Sham eigenvalues and eigenvectors using ELSI and the ELPA eigensolver.
  Starting ELPA eigensolver
  Finished transformation to standard eigenproblem
  | Time :     0.001 s
  Finished solving standard eigenproblem
  | Time :     0.004 s
  Finished back-transformation of eigenvectors
  | Time :     0.001 s

  Obtaining occupation numbers and electronic chemical potential using ELSI.
  | Note that, for insulating systems, the printed 'chemical potential' value is not uniquely defined.
  | It can be anywhere in the energy gap, as long as it correctly separates occupied and unoccupied states.
  | In systems with a gap, the physically relevant chemical potential is the VBM or HOMO.

  | Chemical potential (Fermi level):    -6.43817510 eV
  Highest occupied state (VBM) at     -8.78564510 eV (relative to internal zero)
  | Occupation number:      2.00000000
  | K-point:       1 at    0.000000    0.000000    0.000000 (in units of recip. lattice)

  Lowest unoccupied state (CBM) at    -2.42199605 eV (relative to internal zero)
  | Occupation number:      0.00000000
  | K-point:       1 at    0.000000    0.000000    0.000000 (in units of recip. lattice)

  ESTIMATED overall HOMO-LUMO gap:      6.36364904 eV between HOMO at k-point 1 and LUMO at k-point 1
  The gap value is above 0.2 eV. Unless you are using a very sparse k-point grid,
  this system is most likely an insulator or a semiconductor.

  Checking to see if s.c.f. parameters should be adjusted.
  The system likely has a gap. Increased the default Pulay mixing parameter (charge_mix_param). Value:   0.200000 .
  Kept the default occupation width. Value:   0.010000 eV.

  Total energy components:
  | Sum of eigenvalues            :         -42.15115625 Ha       -1146.99131980 eV
  | XC energy correction          :          -9.32322211 Ha        -253.69778149 eV
  | XC potential correction       :          11.99295213 Ha         326.34483160 eV
  | Free-atom electrostatic energy:         -34.92237720 Ha        -950.28623370 eV
  | Hartree energy correction     :          -1.94080262 Ha         -52.81192633 eV
  | Entropy correction            :           0.00000000 Ha           0.00000000 eV
  | ---------------------------
  | Total energy                  :         -76.34460605 Ha       -2077.44242972 eV
  | Total energy, T -> 0          :         -76.34460605 Ha       -2077.44242972 eV  <-- do not rely on this value for anything but (periodic) metals
  | Electronic free energy        :         -76.34460605 Ha       -2077.44242972 eV

  Derived energy quantities:
  | Kinetic energy                :          77.12310604 Ha        2098.62649227 eV
  | Electrostatic energy          :        -144.14448998 Ha       -3922.37114050 eV
  | Energy correction for multipole
  | error in Hartree potential    :          -0.00219618 Ha          -0.05976101 eV
  | Sum of eigenvalues per atom                           :        -382.33043993 eV
  | Total energy (T->0) per atom                          :        -692.48080991 eV  <-- do not rely on this value for anything but (periodic) metals
  | Electronic free energy per atom                       :        -692.48080991 eV
  Evaluating new KS density using the density matrix
  Evaluating density matrix
  Finished density matrix calculation
  | Time :     0.000 s
  Time summed over all CPUs for getting density from density matrix: real work        1.951 s, elapsed        2.066 s
  Integration grid: deviation in total charge (<rho> - N_e) =   5.329071E-15

  Self-consistency convergence accuracy:
  | Change of charge density      :  0.3565E+00
  | Change of unmixed KS density  :  0.2430E-01
  | Change of sum of eigenvalues  :  0.4808E+02 eV
  | Change of total energy        :  0.2402E+01 eV


------------------------------------------------------------
  End self-consistency iteration #     2       :  max(cpu_time)    wall_clock(cpu1)
  | Time for this iteration                     :        0.500 s           0.497 s
  | Charge density update                       :        0.132 s           0.132 s
  | Density mixing & preconditioning            :        0.072 s           0.072 s
  | Hartree multipole update                    :        0.004 s           0.004 s
  | Hartree multipole summation                 :        0.212 s           0.209 s
  | Integration                                 :        0.072 s           0.071 s
  | Solution of K.-S. eqns.                     :        0.008 s           0.007 s
  | Total energy evaluation                     :        0.004 s           0.001 s

  Partial memory accounting:
  | Current value for overall tracked memory usage:
  |   Minimum:        0.720 MB (on task  5)
  |   Maximum:        0.724 MB (on task  0)
  |   Average:        0.721 MB
  | Peak value for overall tracked memory usage:
  |   Minimum:        4.267 MB (on task  1 after allocating gradient_basis_wave)
  |   Maximum:        5.604 MB (on task  7 after allocating gradient_basis_wave)
  |   Average:        4.849 MB
  | Largest tracked array allocation so far:
  |   Minimum:        1.319 MB (gradient_basis_wave on task  1)
  |   Maximum:        1.693 MB (gradient_basis_wave on task  7)
  |   Average:        1.484 MB
  Note:  These values currently only include a subset of arrays which are explicitly tracked.
  The "true" memory usage will be greater.
------------------------------------------------------------

------------------------------------------------------------
          Begin self-consistency iteration #    3

  Date     :  20221003, Time     :  095754.903
------------------------------------------------------------
  Pulay mixing of updated and previous charge densities.
  Renormalizing the density to the exact electron count on the 3D integration grid.
  | Formal number of electrons (from input files) :      10.0000000000
  | Integrated number of electrons on 3D grid     :       9.9987750127
  | Charge integration error                      :      -0.0012249873
  | Normalization factor for density and gradient :       1.0001225137

  Evaluating partitioned Hartree potential by multipole expansion.
  | Original multipole sum: apparent total charge =  -0.362817E-14
  | Sum of charges compensated after spline to logarithmic grids =   0.231377E-06
  | Analytical far-field extrapolation by fixed multipoles:
  | Hartree multipole sum: apparent total charge =  -0.346828E-14
  Summing up the Hartree potential.
  Time summed over all CPUs for potential: real work        2.847 s, elapsed        3.243 s
  | RMS charge density error from multipole expansion :   0.154065E-02
  | Average real-space part of the electrostatic potential :      0.10391647 eV

  Integrating Hamiltonian matrix: batch-based integration.
  Time summed over all CPUs for integration: real work        1.047 s, elapsed        1.361 s => Consider using load balancing!

  Updating Kohn-Sham eigenvalues and eigenvectors using ELSI and the ELPA eigensolver.
  Starting ELPA eigensolver
  Finished transformation to standard eigenproblem
  | Time :     0.001 s
  Finished solving standard eigenproblem
  | Time :     0.004 s
  Finished back-transformation of eigenvectors
  | Time :     0.000 s

  Obtaining occupation numbers and electronic chemical potential using ELSI.
  | Note that, for insulating systems, the printed 'chemical potential' value is not uniquely defined.
  | It can be anywhere in the energy gap, as long as it correctly separates occupied and unoccupied states.
  | In systems with a gap, the physically relevant chemical potential is the VBM or HOMO.

  | Chemical potential (Fermi level):    -7.75001674 eV
  Highest occupied state (VBM) at     -9.55058253 eV (relative to internal zero)
  | Occupation number:      2.00000000
  | K-point:       1 at    0.000000    0.000000    0.000000 (in units of recip. lattice)

  Lowest unoccupied state (CBM) at    -2.46692107 eV (relative to internal zero)
  | Occupation number:      0.00000000
  | K-point:       1 at    0.000000    0.000000    0.000000 (in units of recip. lattice)

  ESTIMATED overall HOMO-LUMO gap:      7.08366145 eV between HOMO at k-point 1 and LUMO at k-point 1
  The gap value is above 0.2 eV. Unless you are using a very sparse k-point grid,
  this system is most likely an insulator or a semiconductor.

  Total energy components:
  | Sum of eigenvalues            :         -42.55198977 Ha       -1157.89855496 eV
  | XC energy correction          :          -9.27092347 Ha        -252.27466311 eV
  | XC potential correction       :          11.92577128 Ha         324.51674765 eV
  | Free-atom electrostatic energy:         -34.92237720 Ha        -950.28623370 eV
  | Hartree energy correction     :          -1.53103458 Ha         -41.66157064 eV
  | Entropy correction            :           0.00000000 Ha           0.00000000 eV
  | ---------------------------
  | Total energy                  :         -76.35055375 Ha       -2077.60427477 eV
  | Total energy, T -> 0          :         -76.35055375 Ha       -2077.60427477 eV  <-- do not rely on this value for anything but (periodic) metals
  | Electronic free energy        :         -76.35055375 Ha       -2077.60427477 eV

  Derived energy quantities:
  | Kinetic energy                :          76.57389696 Ha        2083.68175286 eV
  | Electrostatic energy          :        -143.65352724 Ha       -3909.01136452 eV
  | Energy correction for multipole
  | error in Hartree potential    :          -0.00123469 Ha          -0.03359768 eV
  | Sum of eigenvalues per atom                           :        -385.96618499 eV
  | Total energy (T->0) per atom                          :        -692.53475826 eV  <-- do not rely on this value for anything but (periodic) metals
  | Electronic free energy per atom                       :        -692.53475826 eV
  Evaluating new KS density using the density matrix
  Evaluating density matrix
  Finished density matrix calculation
  | Time :     0.000 s
  Time summed over all CPUs for getting density from density matrix: real work        1.932 s, elapsed        2.059 s
  Integration grid: deviation in total charge (<rho> - N_e) =  -3.552714E-15

  Self-consistency convergence accuracy:
  | Change of charge density      :  0.1278E+00
  | Change of unmixed KS density  :  0.2204E+00
  | Change of sum of eigenvalues  : -0.1091E+02 eV
  | Change of total energy        : -0.1618E+00 eV


------------------------------------------------------------
  End self-consistency iteration #     3       :  max(cpu_time)    wall_clock(cpu1)
  | Time for this iteration                     :        0.540 s           0.537 s
  | Charge density update                       :        0.132 s           0.131 s
  | Density mixing & preconditioning            :        0.076 s           0.072 s
  | Hartree multipole update                    :        0.004 s           0.003 s
  | Hartree multipole summation                 :        0.216 s           0.214 s
  | Integration                                 :        0.088 s           0.088 s
  | Solution of K.-S. eqns.                     :        0.028 s           0.025 s
  | Total energy evaluation                     :        0.004 s           0.002 s

  Partial memory accounting:
  | Current value for overall tracked memory usage:
  |   Minimum:        0.720 MB (on task  5)
  |   Maximum:        0.724 MB (on task  0)
  |   Average:        0.721 MB
  | Peak value for overall tracked memory usage:
  |   Minimum:        4.267 MB (on task  1 after allocating gradient_basis_wave)
  |   Maximum:        5.604 MB (on task  7 after allocating gradient_basis_wave)
  |   Average:        4.849 MB
  | Largest tracked array allocation so far:
  |   Minimum:        1.319 MB (gradient_basis_wave on task  1)
  |   Maximum:        1.693 MB (gradient_basis_wave on task  7)
  |   Average:        1.484 MB
  Note:  These values currently only include a subset of arrays which are explicitly tracked.
  The "true" memory usage will be greater.
------------------------------------------------------------

------------------------------------------------------------
          Begin self-consistency iteration #    4

  Date     :  20221003, Time     :  095755.442
------------------------------------------------------------
  Pulay mixing of updated and previous charge densities.
  Renormalizing the density to the exact electron count on the 3D integration grid.
  | Formal number of electrons (from input files) :      10.0000000000
  | Integrated number of electrons on 3D grid     :       9.9961831767
  | Charge integration error                      :      -0.0038168233
  | Normalization factor for density and gradient :       1.0003818281

  Evaluating partitioned Hartree potential by multipole expansion.
  | Original multipole sum: apparent total charge =   0.327150E-14
  | Sum of charges compensated after spline to logarithmic grids =   0.149642E-06
  | Analytical far-field extrapolation by fixed multipoles:
  | Hartree multipole sum: apparent total charge =   0.270575E-14
  Summing up the Hartree potential.
  Time summed over all CPUs for potential: real work        2.866 s, elapsed        2.950 s
  | RMS charge density error from multipole expansion :   0.257544E-02
  | Average real-space part of the electrostatic potential :      0.15611562 eV

  Integrating Hamiltonian matrix: batch-based integration.
  Time summed over all CPUs for integration: real work        1.038 s, elapsed        1.089 s

  Updating Kohn-Sham eigenvalues and eigenvectors using ELSI and the ELPA eigensolver.
  Starting ELPA eigensolver
  Finished transformation to standard eigenproblem
  | Time :     0.001 s
  Finished solving standard eigenproblem
  | Time :     0.004 s
  Finished back-transformation of eigenvectors
  | Time :     0.001 s

  Obtaining occupation numbers and electronic chemical potential using ELSI.
  | Note that, for insulating systems, the printed 'chemical potential' value is not uniquely defined.
  | It can be anywhere in the energy gap, as long as it correctly separates occupied and unoccupied states.
  | In systems with a gap, the physically relevant chemical potential is the VBM or HOMO.

  | Chemical potential (Fermi level):    -6.24128252 eV
  Highest occupied state (VBM) at     -8.20921915 eV (relative to internal zero)
  | Occupation number:      2.00000000
  | K-point:       1 at    0.000000    0.000000    0.000000 (in units of recip. lattice)

  Lowest unoccupied state (CBM) at    -2.27844964 eV (relative to internal zero)
  | Occupation number:      0.00000000
  | K-point:       1 at    0.000000    0.000000    0.000000 (in units of recip. lattice)

  ESTIMATED overall HOMO-LUMO gap:      5.93076951 eV between HOMO at k-point 1 and LUMO at k-point 1
  The gap value is above 0.2 eV. Unless you are using a very sparse k-point grid,
  this system is most likely an insulator or a semiconductor.

  Total energy components:
  | Sum of eigenvalues            :         -42.02158656 Ha       -1143.46554913 eV
  | XC energy correction          :          -9.34681858 Ha        -254.33987416 eV
  | XC potential correction       :          12.02558038 Ha         327.23269160 eV
  | Free-atom electrostatic energy:         -34.92237720 Ha        -950.28623370 eV
  | Hartree energy correction     :          -2.07345626 Ha         -56.42161559 eV
  | Entropy correction            :           0.00000000 Ha           0.00000000 eV
  | ---------------------------
  | Total energy                  :         -76.33865822 Ha       -2077.28058098 eV
  | Total energy, T -> 0          :         -76.33865822 Ha       -2077.28058098 eV  <-- do not rely on this value for anything but (periodic) metals
  | Electronic free energy        :         -76.33865822 Ha       -2077.28058098 eV

  Derived energy quantities:
  | Kinetic energy                :          76.63784423 Ha        2085.42184650 eV
  | Electrostatic energy          :        -143.62968387 Ha       -3908.36255332 eV
  | Energy correction for multipole
  | error in Hartree potential    :          -0.00124162 Ha          -0.03378607 eV
  | Sum of eigenvalues per atom                           :        -381.15518304 eV
  | Total energy (T->0) per atom                          :        -692.42686033 eV  <-- do not rely on this value for anything but (periodic) metals
  | Electronic free energy per atom                       :        -692.42686033 eV
  Evaluating new KS density using the density matrix
  Evaluating density matrix
  Finished density matrix calculation
  | Time :     0.000 s
  Time summed over all CPUs for getting density from density matrix: real work        1.972 s, elapsed        2.095 s
  Integration grid: deviation in total charge (<rho> - N_e) =  -3.552714E-15

  Self-consistency convergence accuracy:
  | Change of charge density      :  0.1230E+00
  | Change of unmixed KS density  :  0.6345E-01
  | Change of sum of eigenvalues  :  0.1443E+02 eV
  | Change of total energy        :  0.3237E+00 eV


------------------------------------------------------------
  End self-consistency iteration #     4       :  max(cpu_time)    wall_clock(cpu1)
  | Time for this iteration                     :        0.488 s           0.484 s
  | Charge density update                       :        0.136 s           0.133 s
  | Density mixing & preconditioning            :        0.072 s           0.071 s
  | Hartree multipole update                    :        0.004 s           0.003 s
[...]
  0.000000000000000E+000  0.000000000000000E+000  0.000000000000000E+000
 FOU -2.259582569068323E-006  5.704203993882165E-005  2.613924190812243E-008
 -4.604175424298228E-006  2.211186124246509E-004  1.974478779630323E-006
  3.629036822699666E-003  1.357036877273066E-004  5.852774953409423E-003
 FOU  2.259595843389527E-006  4.608056509681206E-006 -3.629243398397328E-003
 -5.704169198400804E-005 -2.212105072029198E-004 -1.357119350141649E-004
 -2.613844782760871E-008 -1.974512937541112E-006 -5.852645071390205E-003
 FOU -6.923820885785267E-005 -1.523197070103234E-007  5.875213120718621E-004
 -2.079748689013900E-004 -8.879166919684226E-007  9.939254513693121E-003
 -2.384088787221403E-007  1.173549130593368E-003  5.682351805232818E-006
  0.000000000000000E+000  0.000000000000000E+000  0.000000000000000E+000
  0.000000000000000E+000  0.000000000000000E+000  0.000000000000000E+000
  1.523041599344241E-007  8.873833571201985E-007 -1.173579426693565E-003
  0.000000000000000E+000  0.000000000000000E+000  0.000000000000000E+000
  0.000000000000000E+000  0.000000000000000E+000  0.000000000000000E+000
  0.000000000000000E+000  0.000000000000000E+000  0.000000000000000E+000
 -5.875202496385145E-004 -9.939263772952052E-003 -5.682937779485283E-006
  0.000000000000000E+000  0.000000000000000E+000  0.000000000000000E+000
  End CPSCF iteration #     5                  :  max(cpu_time)    wall_clock(cpu1)
  | Time for this iteration                     :        1.372 s           1.370 s
  | first_order_DM                              :        0.004 s           0.003 s
  | first_order_density                         :        0.132 s           0.132 s
  | first_order_potential                       :        0.248 s           0.249 s
  | first_order_H                               :        0.980 s           0.979 s
  | Solution of Sternheimer eqns.               :        0.004 s           0.002 s
------------------------------------------------------------

--------------------- CPSCF ---------------------------------------
          Begin CP-self-consistency iteration #    6

  Date     :  20221003, Time     :  095822.253
------------------------------------------------------------

  CPSCF convergence accuracy:
  | Change of first_order_density_matrix     :  0.7537E-03
  Integrating first_order_rho: batch-based integration.
  Time summed over all CPUs for integration: real work        1.952 s, elapsed        2.261 s

  Evaluating partitioned Hartree potential by multipole expansion.
  | Original multipole sum: apparent total charge =   0.258891E-14
  | Sum of charges compensated after spline to logarithmic grids =   0.209047E-06
  | Analytical far-field extrapolation by fixed multipoles:
  | Hartree multipole sum: apparent total charge =   0.236138E-14
  Summing up the Hartree potential.
  Time summed over all CPUs for potential: real work        3.485 s, elapsed        3.872 s
  | RMS delta_rho error from multipole expansion :   0.210315E-01

  Integrating first-order-Hamiltonian matrix: batch-based integration.
  Time summed over all CPUs for integration: real work       13.504 s, elapsed       14.722 s
 FOH -7.677516934174904E-004 -4.378527838164109E-005  1.588183046316966E-008
  5.989397935863533E-003  4.554378625582781E-004  5.276920467685242E-007
 -2.292292382106241E-004  1.257310914360714E-004 -1.128850062650408E-007
 FOH  9.430538523504834E-003 -3.944003270758275E-005 -5.805196619548177E-005
  0.000000000000000E+000  1.528473529157952E-003  1.794430985628135E-003
  0.000000000000000E+000  0.000000000000000E+000  7.016958638652981E-003
 FOH  4.397836881603332E-003  7.706886664258139E-004 -3.673031845411049E-006
  0.000000000000000E+000  4.484777345393779E-003 -3.666314672421053E-008
  0.000000000000000E+000  0.000000000000000E+000  1.982653120338893E-003
 FOH  0.000000000000000E+000  0.000000000000000E+000  0.000000000000000E+000
 FOH -2.403255297482805E-004  1.485563099809297E-003 -5.059449216362884E-004
  2.923139555041320E-004 -5.394558873976898E-004  5.377433787616259E-002
  1.338222968530132E-003 -1.002044803754283E-003 -9.010526946714330E-002
 FOH  0.000000000000000E+000  0.000000000000000E+000  0.000000000000000E+000
  0.000000000000000E+000  0.000000000000000E+000  0.000000000000000E+000
  0.000000000000000E+000  0.000000000000000E+000  0.000000000000000E+000
 FOH  0.000000000000000E+000  0.000000000000000E+000  0.000000000000000E+000
  0.000000000000000E+000  0.000000000000000E+000  0.000000000000000E+000
  0.000000000000000E+000  0.000000000000000E+000  0.000000000000000E+000
 FOH  8.691413282243156E-009 -9.526970689319361E-008 -2.451407093483112E-007
 -9.265060744454845E-008 -5.336719440083211E-007  5.443194897271493E-005
 -5.849760975824684E-008  7.924826150675947E-007 -1.156642975045130E-004
 FOH  0.000000000000000E+000  0.000000000000000E+000  0.000000000000000E+000
 FOH  0.000000000000000E+000  0.000000000000000E+000  0.000000000000000E+000
  0.000000000000000E+000  0.000000000000000E+000  0.000000000000000E+000
  0.000000000000000E+000  0.000000000000000E+000  0.000000000000000E+000
 FOH  5.860081993732198E-002 -5.381045250323264E-002 -1.107450752500821E-003
  0.000000000000000E+000  0.000000000000000E+000  0.000000000000000E+000
 FOH -3.095891869869165E-004  4.309136710688078E-004  3.033401160929085E-002
  9.028341532360453E-003 -1.954339467136645E-002  2.195670197413710E-003
  8.981589800690588E-004 -1.013826407343881E-003 -1.542832380033574E-002
  0.000000000000000E+000  0.000000000000000E+000  0.000000000000000E+000
 FOH  7.728685367920152E-006  1.039143048058039E-007 -2.813463111710892E-003
  5.806228717905016E-008 -2.361771548925448E-006 -5.355546291753056E-005
  6.091990481650844E-005  1.551823833341158E-003  1.040759535267491E-007
 FOH -6.341388606095739E-003  3.121391358651237E-004 -5.929496468915782E-003
  0.000000000000000E+000 -7.084095646617218E-003  8.722423715994616E-003
  0.000000000000000E+000  0.000000000000000E+000 -6.884798093883506E-003
 FOH  3.234774157651447E-003 -2.637135012298145E-003 -3.204554962078930E-007
  0.000000000000000E+000  2.815915444594803E-003 -2.224699839785211E-006
  0.000000000000000E+000  0.000000000000000E+000  3.356950154606521E-003
  1.155870356318455E-003  4.033597636131649E-004  3.038021246325087E-002
 FOH  0.000000000000000E+000  0.000000000000000E+000  0.000000000000000E+000
  0.000000000000000E+000  0.000000000000000E+000  0.000000000000000E+000
  0.000000000000000E+000  0.000000000000000E+000  0.000000000000000E+000
  5.861627923042451E-004 -2.118501536637905E-004 -1.469979094909846E-002
  0.000000000000000E+000  0.000000000000000E+000  0.000000000000000E+000
  0.000000000000000E+000  0.000000000000000E+000  0.000000000000000E+000
 FOU -3.274497247525833E-005  9.359702059949254E-008 -2.836891335385129E-004
 -8.739305066977581E-005  1.761630624282582E-007  6.805407033125201E-005
 -3.016717406354087E-007 -4.456493569935770E-005 -1.380098839441505E-006
 FOU -2.257958174868060E-006  5.699406827768180E-005  2.608526180932257E-008
 -4.673249226803157E-006  2.229080641281910E-004  1.975575100298860E-006
  3.625536455918970E-003  1.355675196833719E-004  5.850101766258471E-003
 FOU  0.000000000000000E+000  0.000000000000000E+000  0.000000000000000E+000
  0.000000000000000E+000  0.000000000000000E+000  0.000000000000000E+000
  0.000000000000000E+000  0.000000000000000E+000  0.000000000000000E+000
 FOU -6.921780836029526E-005 -1.520722627177808E-007  5.876007311991953E-004
 -2.073208257880460E-004 -8.886220510178727E-007  9.940100972276732E-003
 -2.383865734964480E-007  1.173077275277325E-003  5.681581782601682E-006
 FOU  0.000000000000000E+000  0.000000000000000E+000  0.000000000000000E+000
 FOU  0.000000000000000E+000  0.000000000000000E+000  0.000000000000000E+000
 FOU  2.257971449189506E-006  4.677130312185761E-006 -3.625743031616643E-003
 FOU  0.000000000000000E+000  0.000000000000000E+000  0.000000000000000E+000
 FOU  0.000000000000000E+000  0.000000000000000E+000  0.000000000000000E+000
  0.000000000000000E+000  0.000000000000000E+000  0.000000000000000E+000
  0.000000000000000E+000  0.000000000000000E+000  0.000000000000000E+000
 FOU  0.000000000000000E+000  0.000000000000000E+000  0.000000000000000E+000
  0.000000000000000E+000  0.000000000000000E+000  0.000000000000000E+000
  0.000000000000000E+000  0.000000000000000E+000  0.000000000000000E+000
 FOU  6.921781348900340E-005  2.072650141707430E-004  2.382827998791085E-007
  1.520567156416920E-007  8.880887161745978E-007 -1.173107571377508E-003
 -5.875996687658478E-004 -9.940110231535671E-003 -5.682167756857672E-006
 FOU  0.000000000000000E+000  0.000000000000000E+000  0.000000000000000E+000
  0.000000000000000E+000  0.000000000000000E+000  0.000000000000000E+000
  0.000000000000000E+000  0.000000000000000E+000  0.000000000000000E+000
 FOU  0.000000000000000E+000  0.000000000000000E+000  0.000000000000000E+000
  0.000000000000000E+000  0.000000000000000E+000  0.000000000000000E+000
  0.000000000000000E+000  0.000000000000000E+000  0.000000000000000E+000
 FOU  0.000000000000000E+000  0.000000000000000E+000  0.000000000000000E+000
  0.000000000000000E+000  0.000000000000000E+000  0.000000000000000E+000
  0.000000000000000E+000  0.000000000000000E+000  0.000000000000000E+000
 FOU  3.274576602892512E-005  8.740228057778864E-005  3.016240862311773E-007
 -9.360776478763609E-008 -1.762703448723402E-007  4.455683856296637E-005
  2.836901701158352E-004 -6.806874926732496E-005  1.380041451484011E-006
 FOU  0.000000000000000E+000  0.000000000000000E+000  0.000000000000000E+000
  0.000000000000000E+000  0.000000000000000E+000  0.000000000000000E+000
  0.000000000000000E+000  0.000000000000000E+000  0.000000000000000E+000
  0.000000000000000E+000  0.000000000000000E+000  0.000000000000000E+000
  0.000000000000000E+000  0.000000000000000E+000  0.000000000000000E+000
 -5.699372032286777E-005 -2.229999589064625E-004 -1.355757669702347E-004
  0.000000000000000E+000  0.000000000000000E+000  0.000000000000000E+000
  0.000000000000000E+000  0.000000000000000E+000  0.000000000000000E+000
  0.000000000000000E+000  0.000000000000000E+000  0.000000000000000E+000
 -2.608446772874586E-008 -1.975609258208820E-006 -5.849971884239274E-003
  0.000000000000000E+000  0.000000000000000E+000  0.000000000000000E+000

  CP-self-consistency cycle converged.

  End CPSCF iteration #     6                  :  max(cpu_time)    wall_clock(cpu1)
  | Time for this iteration                     :        1.356 s           1.356 s
  | first_order_DM                              :        0.004 s           0.003 s
  | first_order_density                         :        0.148 s           0.144 s
  | first_order_potential                       :        0.260 s           0.258 s
  | first_order_H                               :        0.924 s           0.922 s
  | Solution of Sternheimer eqns.               :        0.004 s           0.003 s
------------------------------------------------------------
dP_dE (Bohr^3) at every cycle:--->
 (10.3055535562137,0.000000000000000E+000) (-2.108489964099270E-003,0.000000000000000E+000) (-0.182691016233859,0.000000000000000E+000)
 (-2.057203412869840E-003,0.000000000000000E+000) (7.75904111354650,0.000000000000000E+000) (-1.067134201533037E-004,0.000000000000000E+000)
 (-0.182680531514312,0.000000000000000E+000) (-1.095956799116876E-004,0.000000000000000E+000) (13.1866700105061,0.000000000000000E+000)
DFPT polarizability (Bohr^3)        xx        yy        zz        xy        xz        yz
  | Polarizability:--->                        10.305553556                    7.759041114                   13.186670011                   -0.002108490                   -0.182691016                   -0.000106713

DFPT for dielectric_constant:--->  # PARSE DFPT_dielectric_tensor
               1.153523397293559            -0.000031410495388            -0.002721575829405
              -0.000030646471841             1.115587614483245            -0.000001589726036
              -0.002721419636945            -0.000001632663497             1.196443826909362

                                               :  max(cpu_time)    wall_clock(cpu1)
  | Time for  dielectric calculation            :        0.004 s           0.000 s
===========================================================================

------------------------------------------------------------------------------
  Final output of selected total energy values:

  The following output summarizes some interesting total energy values
  at the end of a run (AFTER all relaxation, molecular dynamics, etc.).

  | Total energy of the DFT / Hartree-Fock s.c.f. calculation      :          -2077.252326630 eV
  | Final zero-broadening corrected energy (caution - metals only) :          -2077.252326630 eV
  | For reference only, the value of 1 Hartree used in FHI-aims is :             27.211384500 eV
  | For reference only, the overall average (free atom contribution
  | + realspace contribution) of the electrostatic potential after
  | s.c.f. convergence is                                          :             -1.092757010 eV

  Before relying on these values, please be sure to understand exactly which
  total energy value is referred to by a given number. Different objects may
  all carry the same name 'total energy'. Definitions:

  Total energy of the DFT / Hartree-Fock s.c.f. calculation:
  | Note that this energy does not include ANY quantities calculated after the
  | s.c.f. cycle, in particular not ANY RPA, MP2, etc. many-body perturbation terms.

  Final zero-broadening corrected energy:
  | For metallic systems only, a broadening of the occupation numbers at the Fermi
  | level can be extrapolated back to zero broadening by an electron-gas inspired
  | formula. For all systems that are not real metals, this value can be
  | meaningless and should be avoided.

------------------------------------------------------------------------------
  Methods described in the following list of references were used in this FHI-aims run.
  If you publish the results, please make sure to cite these reference if they apply.
  FHI-aims is an academic code, and for our developers (often, Ph.D. students
  and postdocs), scientific credit in the community is essential.
  Thank you for helping us!

  For any use of FHI-aims, please cite:

    Volker Blum, Ralf Gehrke, Felix Hanke, Paula Havu, Ville Havu,
    Xinguo Ren, Karsten Reuter, and Matthias Scheffler
    'Ab initio molecular simulations with numeric atom-centered orbitals'
    Computer Physics Communications 180, 2175-2196 (2009)
    http://doi.org/10.1016/j.cpc.2009.06.022


  The provided symmetry information was generated with SPGlib:

    Atsushi Togo, Yusuke Seto, Dimitar Pashov
    SPGlib 1.7.3 obtained from http://spglib.sourceforge.net
    Copyright (C) 2008 Atsushi Togo


  The DFPT (perturbation by an electric field) part of the code was used.
  Here is the corresponding reference:

    Honghui Shang, Nathaniel Raimbault, Mariana Rossi,
    Christian Carbogno, Patrick Rinke and Matthias Scheffler,
    'All-Electron, Real-Space Perturbation Theory for Homogeneous
    Electric Fields: Theory, Implementation, and Application within dft'
    New Journal of Physics, 20(7):073040, 2018


  The ELSI infrastructure was used in your run to solve the Kohn-Sham electronic structure.
  Please check out http://elsi-interchange.org to learn more.
  If scalability is important for your project, please acknowledge ELSI by citing:

    V. W-z. Yu, F. Corsetti, A. Garcia, W. P. Huhn, M. Jacquelin, W. Jia,
    B. Lange, L. Lin, J. Lu, W. Mi, A. Seifitokaldani, A. Vazquez-Mayagoitia,
    C. Yang, H. Yang, and V. Blum
    'ELSI: A unified software interface for Kohn-Sham electronic structure solvers'
    Computer Physics Communications 222, 267-285 (2018).
    http://doi.org/10.1016/j.cpc.2017.09.007


  For the real-space grid partitioning and parallelization used in this calculation, please cite:

    Ville Havu, Volker Blum, Paula Havu, and Matthias Scheffler,
    'Efficient O(N) integration for all-electron electronic structure calculation'
    'using numerically tabulated basis functions'
    Journal of Computational Physics 228, 8367-8379 (2009).
    http://doi.org/10.1016/j.jcp.2009.08.008

  Of course, there are many other important community references, e.g., those cited in the
  above references. Our list is limited to references that describe implementations in the
  FHI-aims code. The reason is purely practical (length of this list) - please credit others as well.

------------------------------------------------------------
          Leaving FHI-aims.
          Date     :  20221003, Time     :  095823.617

          Computational steps:
          | Number of self-consistency cycles          :           30
          | Number of SCF (re)initializations          :            1
          | Number of coupled perturbed self-consistency cycles          :            0
          | Number of CPSCF (re)initializations          :            0

          Detailed time accounting                     :  max(cpu_time)    wall_clock(cpu1)
          | Total time                                  :       30.344 s          30.411 s
          | Preparation time                            :        0.136 s           0.140 s
          | Boundary condition initalization            :        0.048 s           0.047 s
          | Grid partitioning                           :        0.032 s           0.031 s
          | Preloading free-atom quantities on grid     :        0.084 s           0.081 s
          | Free-atom superposition energy              :        0.012 s           0.011 s
          | Total time for integrations                 :        1.108 s           1.080 s
          | Total time for solution of K.-S. equations  :        0.156 s           0.136 s
          | Total time for density update               :        1.780 s           1.753 s
          | Total time for mixing & preconditioning     :        0.996 s           0.968 s
          | Total time for Hartree multipole update     :        0.052 s           0.044 s
          | Total time for Hartree multipole sum        :        2.784 s           2.762 s
          | Total time for total energy evaluation      :        0.056 s           0.020 s
          | Total time first_order_DM                   :        0.104 s           0.086 s
          | Total time first_order_density              :        2.312 s           2.285 s
          | Total time first_order_potential            :        4.056 s           4.027 s
          | Total time first_order_H                    :       15.856 s          15.834 s
          | Total time solving of Sternheimer equations :        0.072 s           0.049 s
          | Total time for dielectric constant          :        0.004 s           0.000 s
          | Total time momentum matrix                  :        0.000 s           0.000 s

          Partial memory accounting:
          | Residual value for overall tracked memory usage across tasks:     0.000000 MB (should be 0.000000 MB)
          | Peak values for overall tracked memory usage:
          |   Minimum:        9.272 MB (on task  5 after allocating DFPT_pulay_mixing::pulay_mix::alphas)
          |   Maximum:        9.277 MB (on task  0 after allocating DFPT_pulay_mixing::pulay_mix::alphas)
          |   Average:        9.273 MB
          | Largest tracked array allocation:
          |   Minimum:        3.326 MB (DFPT_pulay_mixing::initialize_pulay_mixing::X_in_diffs on task  0)
          |   Maximum:        3.326 MB (DFPT_pulay_mixing::initialize_pulay_mixing::X_in_diffs on task  0)
          |   Average:        3.326 MB
          Note:  These values currently only include a subset of arrays which are explicitly tracked.
          The "true" memory usage will be greater.

          Have a nice day.
------------------------------------------------------------
