------------------------------------------------------------
          Invoking FHI-aims ...

          When using FHI-aims, please cite the following reference:

            Volker Blum, Ralf Gehrke, Felix Hanke, Paula Havu,
            Ville Havu, Xinguo Ren, Karsten Reuter, and Matthias Scheffler,
            'Ab Initio Molecular Simulations with Numeric Atom-Centered Orbitals',
            Computer Physics Communications 180, 2175-2196 (2009)

          In addition, many other developments in FHI-aims are likely important for
          your particular application. A partial list of references is given at the end of
          this file. Thank you for giving credit to the authors of these developments.

          For any questions about FHI-aims, please visit our slack channel at

            https://fhi-aims.slack.com

          and our main development and support site at

            https://aims-git.rz-berlin.mpg.de .

          The latter site, in particular, has a wiki to collect information, as well
          as an issue tracker to log discussions, suggest improvements, and report issues
          or bugs. https://aims-git.rz-berlin.mpg.de is also the main development site
          of the project and all new and updated code versions can be obtained there.
          Please send an email to aims-coordinators@fhi-berlin.mpg.de and we will add
          you to these sites. They are for you and everyone is welcome there.

------------------------------------------------------------



  Date     :  20221003, Time     :  100819.022
  Time zero on CPU 1             :   0.400000000000000E-01  s.
  Internal wall clock time zero  :           434023699.022  s.

  FHI-aims created a unique identifier for this run for later identification
  aims_uuid : A30E2E31-92A4-41D0-A5CC-51EA93D1AA6C

  Build configuration of the current instance of FHI-aims
  -------------------------------------------------------
  FHI-aims version      : 220810
  Commit number         : eae8be818
  CMake host system     : Linux-4.9.0-16-amd64
  CMake version         : 3.17.3
  Fortran compiler      : /opt/easybuild/software/impi/2017.3.196-iccifort-2017.4.196-GCC-6.4.0-2.28/bin64/mpiifort (Intel) version 17.0.4.20170411
  Fortran compiler flags: -O3 -ip -fp-model precise
  C compiler            : /opt/easybuild/software/icc/2017.4.196-GCC-6.4.0-2.28/compilers_and_libraries_2017.4.196/linux/bin/intel64/icc (Intel) version 17.0.4.20170411
  C compiler flags      : -O3 -ip -fp-model precise -std=gnu99
  Using MPI
  Using ScaLAPACK
  Using LibXC
  Using i-PI
  Using RLSY
  Linking against: /opt/easybuild/software/imkl/2017.3.196-iimpi-2017b/mkl/lib/intel64/libmkl_intel_lp64.so
                   /opt/easybuild/software/imkl/2017.3.196-iimpi-2017b/mkl/lib/intel64/libmkl_sequential.so
                   /opt/easybuild/software/imkl/2017.3.196-iimpi-2017b/mkl/lib/intel64/libmkl_core.so
                   /opt/easybuild/software/imkl/2017.3.196-iimpi-2017b/mkl/lib/intel64/libmkl_blacs_intelmpi_lp64.so
                   /opt/easybuild/software/imkl/2017.3.196-iimpi-2017b/mkl/lib/intel64/libmkl_scalapack_lp64.so

  Using       16 parallel tasks.
  Task        0 on host mpsd-hpc-ibm-056 reporting.
  Task        1 on host mpsd-hpc-ibm-056 reporting.
  Task        2 on host mpsd-hpc-ibm-056 reporting.
  Task        3 on host mpsd-hpc-ibm-056 reporting.
  Task        4 on host mpsd-hpc-ibm-057 reporting.
  Task        5 on host mpsd-hpc-ibm-057 reporting.
  Task        6 on host mpsd-hpc-ibm-057 reporting.
  Task        7 on host mpsd-hpc-ibm-057 reporting.
  Task        8 on host mpsd-hpc-ibm-058 reporting.
  Task        9 on host mpsd-hpc-ibm-058 reporting.
  Task       10 on host mpsd-hpc-ibm-058 reporting.
  Task       11 on host mpsd-hpc-ibm-058 reporting.
  Task       12 on host mpsd-hpc-ibm-059 reporting.
  Task       13 on host mpsd-hpc-ibm-059 reporting.
  Task       14 on host mpsd-hpc-ibm-059 reporting.
  Task       15 on host mpsd-hpc-ibm-059 reporting.

  Performing system and environment tests:
  | Environment variable OMP_NUM_THREADS correctly set to 1.
  | Checking for ScaLAPACK...
  | Testing pdtran()...
  | All pdtran() tests passed.

  Obtaining array dimensions for all initial allocations:
  
  -----------------------------------------------------------------------
  Parsing control.in (first pass over file, find array dimensions only).
  The contents of control.in will be repeated verbatim below
  unless switched off by setting 'verbatim_writeout .false.' .
  in the first line of control.in .
  -----------------------------------------------------------------------
  
  #########################################################################################
  #
  #  Volker Blum, 2017 : Test run input file control.in for simple H2O
  #
  #########################################################################################
  #
  #  Physical model
  #
    xc                 pbe
    spin               none
    relativistic       none
    charge             0.
  
  #  ri_density_restart         write
  #  ri_rho1 write
  #  ri_full_output .True.
  #  ri_output_density_only .True.
    DFPT dielectric
    sc_accuracy_rho    1d-6
  #  use_calculate_fock_matrix_old .false.
  #  output cube total_density
    k_grid 1 1 1
    wave_threshold 1e-8
  
  # prodbas_threshold 1e-2
  #
  #  Relaxation
  #
  #  relax_geometry   bfgs 1.e-2
  #
  
  ################################################################################
  
  ################################################################################
  #
  #  FHI-aims code project
  #  VB, Fritz-Haber Institut, 2009
  #
  #  Suggested "light" defaults for O atom (to be pasted into control.in file)
  #  Be sure to double-check any results obtained with these settings for post-processing,
  #  e.g., with the "tight" defaults and larger basis sets.
  #
  ################################################################################
    species        O
  #     global species definitions
      nucleus             8
      mass                15.9994
  #
      l_hartree           6
  #
      cut_pot             4.0  2.0  1.0
      basis_dep_cutoff    1e-4
  #
      radial_base         36 7.0
      radial_multiplier   2
       angular_grids specified
        division   0.2659   50
        division   0.4451  110
        division   0.6052  194
        division   0.7543  302
        division   0.8014  434
  #      division   0.8507  590
  #      division   0.8762  770
  #      division   0.9023  974
  #      division   1.2339 1202
  #      outer_grid 974
        outer_grid 434
  ################################################################################
  #
  #  Definition of "minimal" basis
  #
  ################################################################################
  #     valence basis states
      valence      2  s   2.
      valence      2  p   4.
  #     ion occupancy
      ion_occ      2  s   1.
      ion_occ      2  p   3.
  ################################################################################
  #
  #  Suggested additional basis functions. For production calculations,
  #  uncomment them one after another (the most important basis functions are
  #  listed first).
  #
  #
  ################################################################################
  #  "First tier" - improvements: -699.05 meV to -159.38 meV
       hydro 2 p 1.8
       hydro 3 d 7.6
       hydro 3 s 6.4
  #  "Second tier" - improvements: -49.91 meV to -5.39 meV
       hydro 4 f 11.6
       hydro 3 p 6.2
       hydro 3 d 5.6
       hydro 5 g 17.6
       hydro 1 s 0.75
  #  "Third tier" - improvements: -2.83 meV to -0.50 meV
  #     ionic 2 p auto
  #     hydro 4 f 10.8
  #     hydro 4 d 4.7
  #     hydro 2 s 6.8
  #  "Fourth tier" - improvements: -0.40 meV to -0.12 meV
  #     hydro 3 p 5
  #     hydro 3 s 3.3
  #     hydro 5 g 15.6
  #     hydro 4 f 17.6
  #     hydro 4 d 14
  # Further basis functions - -0.08 meV and below
  #     hydro 3 s 2.1
  #     hydro 4 d 11.6
  #     hydro 3 p 16
  #     hydro 2 s 17.2
  ################################################################################
  #
  #  FHI-aims code project
  #  VB, Fritz-Haber Institut, 2009
  #
  #  Suggested "light" defaults for H atom (to be pasted into control.in file)
  #  Be sure to double-check any results obtained with these settings for post-processing,
  #  e.g., with the "tight" defaults and larger basis sets.
  #
  ################################################################################
    species        H
  #     global species definitions
      nucleus             1
      mass                1.00794
  #
      l_hartree           6
  #
      cut_pot             4.0  2.0  1.0
      basis_dep_cutoff    1e-4
  #
      radial_base         24 7.0
      radial_multiplier   2
      angular_grids       specified
        division   0.2421   50
        division   0.3822  110
        division   0.4799  194
        division   0.5341  302
        division   0.5626  434
  #      division   0.5922  590
  #      division   0.6542  770
  #      division   0.6868 1202
  #      outer_grid  770
        outer_grid  434
  ################################################################################
  #
  #  Definition of "minimal" basis
  #
  ################################################################################
  #     valence basis states
      valence      1  s   1.
  #     ion occupancy
      ion_occ      1  s   0.5
  ################################################################################
  #
  #  Suggested additional basis functions. For production calculations,
  #  uncomment them one after another (the most important basis functions are
  #  listed first).
  #
  #  Basis constructed for dimers: 0.5 A, 0.7 A, 1.0 A, 1.5 A, 2.5 A
  #
  ################################################################################
  #  "First tier" - improvements: -1014.90 meV to -62.69 meV
       hydro 2 s 2.1
       hydro 2 p 3.5
  #  "Second tier" - improvements: -12.89 meV to -1.83 meV
      hydro 1 s 0.85
      hydro 2 p 3.7
      hydro 2 s 1.2
      hydro 3 d 7
  #  "Third tier" - improvements: -0.25 meV to -0.12 meV
  #    hydro 4 f 11.2
  #    hydro 3 p 4.8
  #    hydro 4 d 9
  #    hydro 3 s 3.2
  #
  
  
  -----------------------------------------------------------------------
  Completed first pass over input file control.in .
  -----------------------------------------------------------------------
  
  
  -----------------------------------------------------------------------
  Parsing geometry.in (first pass over file, find array dimensions only).
  The contents of geometry.in will be repeated verbatim below
  unless switched off by setting 'verbatim_writeout .false.' .
  in the first line of geometry.in .
  -----------------------------------------------------------------------
  
  #=======================================================
  # FHI-aims file: qmdata/data/geoms/137.in
  # Created using the Atomic Simulation Environment (ASE)
  # Wed Sep 21 12:30:23 2022
  #=======================================================
  lattice_vector 5.0000000000000000 0.0000000000000000 0.0000000000000000
  lattice_vector 0.0000000000000000 5.0000000000000000 0.0000000000000000
  lattice_vector 0.0000000000000000 0.0000000000000000 5.0000000000000000
  atom 0.0615602800000000 0.0035422800000000 0.0034343800000000 O
  atom -0.5079302700000000 -0.7489064400000000 -0.0283368500000000 H
  atom -0.4691559500000000 0.6926833100000001 -0.0261736700000000 H
  
  -----------------------------------------------------------------------
  Completed first pass over input file geometry.in .
  -----------------------------------------------------------------------
  

  Basic array size parameters:
  | Number of species                 :        2
  | Number of atoms                   :        3
  | Number of lattice vectors         :        3
  | Max. basis fn. angular momentum   :        4
  | Max. atomic/ionic basis occupied n:        2
  | Max. number of basis fn. types    :        2
  | Max. radial fns per species/type  :        8
  | Max. logarithmic grid size        :     1301
  | Max. radial integration grid size :       73
  | Max. angular integration grid size:      434
  | Max. angular grid division number :        8
  | Radial grid for Hartree potential :     1301
  | Number of spin channels           :        1

------------------------------------------------------------
          Reading file control.in.
------------------------------------------------------------
  XC: Using PBE gradient-corrected functionals.
  Spin treatment: No spin polarisation.
  Non-relativistic treatment of kinetic energy.
  Charge =   0.000000E+00: Neutral system requested explicitly.
  DFPT calculation will begin after the DFT/HF calculation.
  Convergence accuracy of self-consistent charge density:  0.1000E-05
  Found k-point grid:         1         1         1
  Threshold value for wave function integration:  0.1000E-07
 
  Reading configuration options for species O                   .
  | Found nuclear charge :   8.0000
  | Found atomic mass :    15.9994000000000      amu
  | Found l_max for Hartree potential  :   6
  | Found cutoff potl. onset [A], width [A], scale factor :    4.00000    2.00000    1.00000
  | Threshold for basis-dependent cutoff potential is   0.100000E-03
  | Found data for basic radial integration grid :    36 points, outermost radius =    7.000 A
  | Found multiplier for basic radial grid :   2
  | Found angular grid specification: user-specified.
  | Specified grid contains     6 separate shells.
  | Check grid settings after all constraints further below.
  | Found free-atom valence shell :  2 s   2.000
  | Found free-atom valence shell :  2 p   4.000
  | No ionic wave fns used. Skipping ion_occ.
  | No ionic wave fns used. Skipping ion_occ.
  | Found hydrogenic basis function :  2 p   1.800
  | Found hydrogenic basis function :  3 d   7.600
  | Found hydrogenic basis function :  3 s   6.400
  | Found hydrogenic basis function :  4 f  11.600
  | Found hydrogenic basis function :  3 p   6.200
  | Found hydrogenic basis function :  3 d   5.600
  | Found hydrogenic basis function :  5 g  17.600
  | Found hydrogenic basis function :  1 s   0.750
  Species O                   : Missing cutoff potential type.
  Defaulting to exp(1/x)/(1-x)^2 type cutoff potential.
  Species O : No 'logarithmic' tag. Using default grid for free atom:
  | Default logarithmic grid data [bohr] : 0.1000E-03 0.1000E+03 0.1012E+01
  Species O : On-site basis accuracy parameter (for Gram-Schmidt orthonormalisation) not specified.
  Using default value basis_acc =  0.1000000E-03.
  Species O                   : Using default innermost maximum threshold i_radial=  2 for radial functions.
  Species O                   : Default cutoff onset for free atom density etc. : 0.40000000E+01 AA.
  Species O                   : Basic radial grid will be enhanced according to radial_multiplier =   2, to contain    73 grid points.
 
  Reading configuration options for species H                   .
  | Found nuclear charge :   1.0000
  | Found atomic mass :    1.00794000000000      amu
  | Found l_max for Hartree potential  :   6
  | Found cutoff potl. onset [A], width [A], scale factor :    4.00000    2.00000    1.00000
  | Threshold for basis-dependent cutoff potential is   0.100000E-03
  | Found data for basic radial integration grid :    24 points, outermost radius =    7.000 A
  | Found multiplier for basic radial grid :   2
  | Found angular grid specification: user-specified.
  | Specified grid contains     6 separate shells.
  | Check grid settings after all constraints further below.
  | Found free-atom valence shell :  1 s   1.000
  | No ionic wave fns used. Skipping ion_occ.
  | Found hydrogenic basis function :  2 s   2.100
  | Found hydrogenic basis function :  2 p   3.500
  | Found hydrogenic basis function :  1 s   0.850
  | Found hydrogenic basis function :  2 p   3.700
  | Found hydrogenic basis function :  2 s   1.200
  | Found hydrogenic basis function :  3 d   7.000
  Species H                   : Missing cutoff potential type.
  Defaulting to exp(1/x)/(1-x)^2 type cutoff potential.
  Species H : No 'logarithmic' tag. Using default grid for free atom:
  | Default logarithmic grid data [bohr] : 0.1000E-03 0.1000E+03 0.1012E+01
  Species H : On-site basis accuracy parameter (for Gram-Schmidt orthonormalisation) not specified.
  Using default value basis_acc =  0.1000000E-03.
  Species H                   : Using default innermost maximum threshold i_radial=  2 for radial functions.
  Species H                   : Default cutoff onset for free atom density etc. : 0.40000000E+01 AA.
  Species H                   : Basic radial grid will be enhanced according to radial_multiplier =   2, to contain    49 grid points.
 
  Finished reading input file 'control.in'.
 
------------------------------------------------------------


------------------------------------------------------------
          Reading geometry description geometry.in.
------------------------------------------------------------
  | The smallest distance between any two atoms is         0.87031702 AA.
  | The first atom of this pair is atom number                      1 .
  | The second atom of this pair is atom number                     3 .
  | Wigner-Seitz cell of the first atom image           0     0     0 .
  | (The Wigner-Seitz cell of the second atom is 0 0 0  by definition.)

  Symmetry information by spglib:
  | Precision set to  0.1E-04
  | Number of Operations  : 1
  | Space group           : 1
  | International         : P1  H
  | Schoenflies           : C1^1
  Input structure read successfully.
  The structure contains        3 atoms,  and a total of         10.000 electrons.

  Input geometry:
  | Unit cell:
  |        5.00000000        0.00000000        0.00000000
  |        0.00000000        5.00000000        0.00000000
  |        0.00000000        0.00000000        5.00000000
  | Atomic structure:
  |       Atom                x [A]            y [A]            z [A]
  |    1: Species O             0.06156028        0.00354228        0.00343438
  |    2: Species H            -0.50793027       -0.74890644       -0.02833685
  |    3: Species H            -0.46915595        0.69268331       -0.02617367

  Lattice parameters for 3D lattice (in Angstroms) :     5.000000    5.000000    5.000000
  Angle(s) between unit vectors (in degrees)       :    90.000000   90.000000   90.000000


  Quantities derived from the lattice vectors (in Angstrom^-1):
  | Reciprocal lattice vector 1:  1.256637  0.000000  0.000000
  | Reciprocal lattice vector 2:  0.000000  1.256637  0.000000
  | Reciprocal lattice vector 3:  0.000000  0.000000  1.256637
  | Unit cell volume                               :   0.125000E+03  Angstrom^3

  Fractional coordinates:
                         L1                L2                L3
       atom_frac         0.01231206        0.00070846        0.00068688  O
       atom_frac        -0.10158605       -0.14978129       -0.00566737  H
       atom_frac        -0.09383119        0.13853666       -0.00523473  H

 
  Finished reading input file 'geometry.in'.
 

 
  Consistency checks for stacksize environment parameter are next.
 
  | Maximum stacksize for task 0: unlimited
  | Maximum stacksize for task 1: unlimited
  | Maximum stacksize for task 2: unlimited
  | Maximum stacksize for task 3: unlimited
  | Maximum stacksize for task 4: unlimited
  | Maximum stacksize for task 5: unlimited
  | Maximum stacksize for task 6: unlimited
  | Maximum stacksize for task 7: unlimited
  | Maximum stacksize for task 8: unlimited
  | Maximum stacksize for task 9: unlimited
  | Maximum stacksize for task 10: unlimited
  | Maximum stacksize for task 11: unlimited
  | Maximum stacksize for task 12: unlimited
  | Maximum stacksize for task 13: unlimited
  | Maximum stacksize for task 14: unlimited
  | Maximum stacksize for task 15: unlimited
  | Current stacksize for task 0: unlimited
  | Current stacksize for task 1: unlimited
  | Current stacksize for task 2: unlimited
  | Current stacksize for task 3: unlimited
  | Current stacksize for task 4: unlimited
  | Current stacksize for task 5: unlimited
  | Current stacksize for task 6: unlimited
  | Current stacksize for task 7: unlimited
  | Current stacksize for task 8: unlimited
  | Current stacksize for task 9: unlimited
  | Current stacksize for task 10: unlimited
  | Current stacksize for task 11: unlimited
  | Current stacksize for task 12: unlimited
  | Current stacksize for task 13: unlimited
  | Current stacksize for task 14: unlimited
  | Current stacksize for task 15: unlimited
 
  Consistency checks for the contents of control.in are next.
 
  MPI_IN_PLACE appears to work with this MPI implementation.
  | Keeping use_mpi_in_place .true. (see manual).
  Target number of points in a grid batch is not set. Defaulting to  100
  Method for grid partitioning is not set. Defaulting to parallel hash+maxmin partitioning.
  Batch size limit is not set. Defaulting to    200
  By default, will store active basis functions for each batch.
  If in need of memory, prune_basis_once .false. can be used to disable this option.
  communication_type for Hartree potential was not specified.
  Defaulting to calc_hartree .
  Defaulting to Pulay charge density mixer.
  Pulay mixer: Number of relevant iterations not set.
  Defaulting to    8 iterations.
  Pulay mixer: Number of initial linear mixing iterations not set.
  Defaulting to    0 iterations.
  Work space size for distributed Hartree potential not set.
  Defaulting to   0.200000E+03 MB.
  Mixing parameter for charge density mixing has not been set.
  Using default: charge_mix_param =     0.0500.
  The mixing parameter will be adjusted in iteration number     2 of the first full s.c.f. cycle only.
  Algorithm-dependent basis array size parameters:
  | n_max_pulay                         :        8
  Maximum number of self-consistency iterations not provided.
  Presetting  1000 iterations.
  Presetting      1001 iterations before the initial mixing cycle
  is restarted anyway using the sc_init_iter criterion / keyword.
  Presetting a factor      1.000 between actual scf density residual
  and density convergence criterion sc_accuracy_rho below which sc_init_iter
  takes no effect.
  Calculation of forces was not defined in control.in. No forces will be calculated.
  Geometry relaxation not requested: no relaxation will be performed.
  No accuracy limit for integral partition fn. given. Defaulting to  0.1000E-14.
  No occupation type (smearing scheme) given. Defaulting to Gaussian broadening, width =  0.1000E-01 eV.
  The width will be adjusted in iteration number     2 of the first full s.c.f. cycle only.
  S.C.F. convergence parameters will be adjusted in iteration number     2 of the first full s.c.f. cycle only.
  No accuracy for occupation numbers given. Defaulting to  0.1000E-12.
  No threshold value for occupation numbers given. Defaulting to  0.0000E+00.
  No accuracy for fermi level given. Defaulting to  0.1000E-19.
  Maximum # of iterations to find E_F not set. Defaulting to  200.
  Preferred method for the eigenvalue solver ('KS_method') not specified in 'control.in'.
  Calling BLACS routine to test compilation state
  Since ScaLAPACK support is enabled, defaulting to ELPA (via ELSI).
  Will not use alltoall communication since running on < 1024 CPUs.
  Threshold for basis singularities not set.
  Default threshold for basis singularities:  0.1000E-04
  partition_type (choice of integration weights) for integrals was not specified.
  | Using a version of the partition function of Stratmann and coworkers ('stratmann_sparse').
  | At each grid point, the set of atoms used to build the partition table is smoothly restricted to
  | only those atoms whose free-atom density would be non-zero at that grid point.
  Partitioning for Hartree potential was not defined. Using partition_type for integrals.
  | Adjusted default value of keyword multip_moments_threshold to:       0.10000000E-11
  | This value may affect high angular momentum components of the Hartree potential in periodic systems.
  Angular momentum expansion for Kerker preconditioner not set explicitly.
  | Using default value of   0
  No explicit requirement for turning off preconditioner.
  | By default, it will be turned off when the charge convergence reaches
  | sc_accuracy_rho  =   0.100000E-05
  No special mixing parameter while Kerker preconditioner is on.
  Using default: charge_mix_param =     0.0500.
  No q(lm)/r^(l+1) cutoff set for long-range Hartree potential.
  | Using default value of  0.100000E-09 .
  | Verify using the multipole_threshold keyword.
  Defaulting to new monopole extrapolation.
  Density update method: automatic selection selected.
  Using density matrix based charge density update.
  Using density matrix based charge density update.
  Using packed matrix style: index .
  Defaulting to use time-reversal symmetry for k-point grid.
  Charge integration errors on the 3D integration grid will be compensated
  by explicit normalization and distribution of residual charges.
  Use the "compensate_multipole_errors" flag to change this behaviour.
 
  Consistency checks for the contents of geometry.in are next.
 

  Range separation radius for Ewald summation (hartree_convergence_parameter):      5.00000000 bohr.
  Number of empty states per atom not set in control.in .
  | Since you are using a method that relies on the unoccupied spectrum
  | (MP2,GW,RPA et al.), will use the full Hamiltonian size (see below)
  | as the max. possible number of states (occupied plus empty).

  Structure-dependent array size parameters: 
  | Maximum number of distinct radial functions  :       18
  | Maximum number of basis functions            :       69
  | Number of Kohn-Sham states (occupied + empty):       69
------------------------------------------------------------

------------------------------------------------------------
          Preparing all fixed parts of the calculation.
------------------------------------------------------------
  Determining machine precision:
    2.225073858507201E-308
  Setting up grids for atomic and cluster calculations.

  Creating wave function, potential, and density for free atoms.
  Runtime choices for atomic solver:
  | atomic solver xc        : PBE
  | compute density gradient: 1
  | compute kinetic density : F

  Species: O

  List of occupied orbitals and eigenvalues:
    n    l              occ      energy [Ha]    energy [eV]
    1    0           2.0000       -18.898576      -514.2564
    2    0           2.0000        -0.878795       -23.9132
    2    1           4.0000        -0.332075        -9.0362


  Species: H

  List of occupied orbitals and eigenvalues:
    n    l              occ      energy [Ha]    energy [eV]
    1    0           1.0000        -0.238382        -6.4867


  Adding cutoff potential to free-atom effective potential.
  Creating fixed part of basis set: Ionic, confined, hydrogenic.
 
  O                    hydrogenic:
 
  List of hydrogenic basis orbitals: 
    n    l      effective z      eigenvalue [eV]  inner max. [A]     outer max. [A]     outer radius [A]   
    2    1         1.800000       -11.0118           1.178562           1.178562           5.567066
    3    2         7.600000       -87.3182           0.624125           0.624125           3.764702
    3    0         6.400000       -61.9209           0.061167           1.081902           4.522403
    4    3        11.600000      -114.4238           0.731631           0.731631           3.811008
    3    1         6.200000       -58.1113           0.255680           1.030270           4.522403
    3    2         5.600000       -47.4081           0.847233           0.847233           4.578029
    5    4        17.600000      -168.5799           0.749740           0.749740           3.629133
    1    0         0.750000        -7.6499           0.705284           0.705284           5.567066
 
 
  H                    hydrogenic:
 
  List of hydrogenic basis orbitals: 
    n    l      effective z      eigenvalue [eV]  inner max. [A]     outer max. [A]     outer radius [A]   
    2    0         2.100000       -14.9965           0.193243           1.317208           5.573719
    2    1         3.500000       -41.6672           0.602369           0.602369           4.259334
    1    0         0.850000        -9.8292           0.624871           0.624871           5.573719
    2    1         3.700000       -46.5653           0.573622           0.573622           4.105953
    2    0         1.200000        -4.5995           0.334980           2.228188           5.642276
    3    2         7.000000       -74.0753           0.680699           0.680699           3.958095
 
  Creating atomic-like basis functions for current effective potential.

  Species O                   :

  List of atomic basis orbitals and eigenvalues:
    n    l      energy [Ha]    energy [eV]    outer radius [A]
    1    0       -18.898576      -514.2564       1.807907
    2    0        -0.878795       -23.9132       5.366593
    2    1        -0.332075        -9.0362       5.499423


  Species H                   :

  List of atomic basis orbitals and eigenvalues:
    n    l      energy [Ha]    energy [eV]    outer radius [A]
    1    0        -0.238382        -6.4867       5.573719

  Assembling full basis from fixed parts.
  | Species O :   atomic orbital   1 s accepted.
  | Species O :    hydro orbital   3 s accepted.
  | Species O :   atomic orbital   2 s accepted.
  | Species O :    hydro orbital   1 s accepted.
  | Species O :    hydro orbital   3 p accepted.
  | Species O :   atomic orbital   2 p accepted.
  | Species O :    hydro orbital   2 p accepted.
  | Species O :    hydro orbital   3 d accepted.
  | Species O :    hydro orbital   3 d accepted.
  | Species O :    hydro orbital   4 f accepted.
  | Species O :    hydro orbital   5 g accepted.
  | Species H :   atomic orbital   1 s accepted.
  | Species H :    hydro orbital   2 s accepted.
  | Species H :    hydro orbital   1 s accepted.
  | Species H :    hydro orbital   2 s accepted.
  | Species H :    hydro orbital   2 p accepted.
  | Species H :    hydro orbital   2 p accepted.
  | Species H :    hydro orbital   3 d accepted.
 
  Basis size parameters after reduction:
  | Total number of radial functions:       18
  | Total number of basis functions :       69
 
  Per-task memory consumption for arrays in subroutine allocate_ext:
  |           4.499020MB.
  Testing on-site integration grid accuracy.
  |  Species  Function  <phi|h_atom|phi> (log., in eV)  <phi|h_atom|phi> (rad., in eV)
           1        1               -514.2564144315               -514.2564099626
           1        2                 15.1726678541                 15.1726530877
           1        3                -21.5447785304                -21.5447874973
           1        4                 14.4944558459                 14.4944698284
           1        5                 20.8882174564                 20.8882178906
           1        6                 -2.4850315909                 -2.4850322289
           1        7                 13.8600193195                 13.8599826966
           1        8                 45.8243383616                 45.8243383675
           1        9                 52.1840606465                 52.1840622440
           1       10                 85.4074185510                 85.4074185819
           1       11                142.0983717302                142.0983717339
           2       12                 -6.4869821809                 -6.4870742227
           2       13                 13.5044133542                 13.5041049177
           2       14                 32.7854418792                 32.7779770519
           2       15                 33.7995553101                 33.7152624900 ***
           2       16                 28.8558651799                 28.8558652046
           2       17                 59.6361831893                 59.6362535845
           2       18                 60.2733718049                 60.2733715484
 * Note: Onsite integrals marked "***" above are less accurate than
 * onsite_accuracy_threshold =    0.03000 eV. Usually, this is harmless.
 * When in doubt, tighten the "radial" and/or "radial_multiplier" flags to check.

  Preparing densities etc. for the partition functions (integrals / Hartree potential).

  Preparations completed.
  max(cpu_time)          :      0.148 s.
  Wall clock time (cpu1) :      0.163 s.
------------------------------------------------------------

  Initializing index lists of integration centers etc. from given atomic structure:
  Mapping all atomic coordinates to central unit cell.

  Initializing the k-points
  Using symmetry for reducing the k-points
  | k-points reduced from:        1 to        1
  | Number of k-points                             :         1
  | Consuming          0 KiB for k_phase_exx.
  The eigenvectors in the calculations are REAL.
  | Number of basis functions in the Hamiltonian integrals :      1570
  | Number of basis functions in a single unit cell        :        69
  | Number of centers in hartree potential         :       655
  | Number of centers in hartree multipole         :       243
  | Number of centers in electron density summation:       191
  | Number of centers in basis integrals           :       207
  | Number of centers in integrals                 :        81
  | Number of centers in hamiltonian               :       191
  | Consuming          1 KiB for k_phase.
  | Number of super-cells (origin) [n_cells]                     :        1331
  | Number of super-cells (after PM_index) [n_cells]             :          74
  | Number of super-cells in hamiltonian [n_cells_in_hamiltonian]:          74
  | Size of matrix packed + index [n_hamiltonian_matrix_size] :       62382
  | Size of matrix packed + index (no_symmetry):      122766

------------------------------------------------------------
          Begin self-consistency loop: Initialization.

          Date     :  20221003, Time     :  100819.311
------------------------------------------------------------
  | Estimated reciprocal-space cutoff momentum G_max:         1.90186217 bohr^-1 .
  | Reciprocal lattice points for long-range Hartree potential:      92
  Using simple linear distribution as default method for k-point parallelism.
  * Using 16 tasks for Scalapack Eigenvalue solver.
  Detailed listing of tasks and assigned k-points:
   Task     0 k-point     1 on mpsd-hpc-ibm-056
   Task     1 k-point     1 on mpsd-hpc-ibm-056
   Task     2 k-point     1 on mpsd-hpc-ibm-056
   Task     3 k-point     1 on mpsd-hpc-ibm-056
   Task     4 k-point     1 on mpsd-hpc-ibm-057
   Task     5 k-point     1 on mpsd-hpc-ibm-057
   Task     6 k-point     1 on mpsd-hpc-ibm-057
   Task     7 k-point     1 on mpsd-hpc-ibm-057
   Task     8 k-point     1 on mpsd-hpc-ibm-058
   Task     9 k-point     1 on mpsd-hpc-ibm-058
   Task    10 k-point     1 on mpsd-hpc-ibm-058
   Task    11 k-point     1 on mpsd-hpc-ibm-058
   Task    12 k-point     1 on mpsd-hpc-ibm-059
   Task    13 k-point     1 on mpsd-hpc-ibm-059
   Task    14 k-point     1 on mpsd-hpc-ibm-059
   Task    15 k-point     1 on mpsd-hpc-ibm-059
  K-point:     1 Tasks:    16 split into      4 X      4 BLACS grid
  Calculating block size based on n_basis =           69  max_nprow =            4  max_npcol =            4
  ScaLAPACK block size set to:           16
  Allocating        0.003 MB for ovlp
  Allocating        0.003 MB for ham
  Allocating        0.003 MB for eigenvec
  Required Scalapack workspace - INTEGER:            1  REAL:             1
  Partitioning the integration grid into batches with parallel hashing+maxmin method.
  | Number of batches:      497
  | Maximal batch size:     168
  | Minimal batch size:      50
  | Average batch size:      94.346
  | Standard deviation of batch sizes:      23.476

  Integration load balanced across    16 MPI tasks.
  Work distribution over tasks is as follows:
  Task     0 has       2919 integration points.
  Task     1 has       2906 integration points.
  Task     2 has       2914 integration points.
  Task     3 has       2960 integration points.
  Task     4 has       2984 integration points.
  Task     5 has       2910 integration points.
  Task     6 has       2905 integration points.
  Task     7 has       2958 integration points.
  Task     8 has       2936 integration points.
  Task     9 has       2932 integration points.
  Task    10 has       2945 integration points.
  Task    11 has       2924 integration points.
  Task    12 has       2942 integration points.
  Task    13 has       2935 integration points.
  Task    14 has       2916 integration points.
  Task    15 has       2904 integration points.
  Initializing partition tables, free-atom densities, potentials, etc. across the integration grid (initialize_grid_storage).
  | initialize_grid_storage: Actual outermost partition radius vs. multipole_radius_free
  | (-- VB: in principle, multipole_radius_free should be larger, hence this output)
  | Species        1: Confinement radius =              6.000000000000000 AA, multipole_radius_free =              6.064445521808699 AA.
  | Species        1: outer_partition_radius set to              6.064445521808699 AA .
  | Species        2: Confinement radius =              6.000000000000000 AA, multipole_radius_free =              6.071692442739658 AA.
  | Species        2: outer_partition_radius set to              6.071692442739658 AA .
  | The sparse table of interatomic distances needs        415.60 kbyte instead of       342.79 kbyte of memory.
  | Using the partition_type stratmann_smoother will reduce your memory usage.
  | Net number of integration points:    46890
  | of which are non-zero points    :    37314
  | Numerical average free-atom electrostatic potential    :     -1.29049434 eV
  Renormalizing the initial density to the exact electron count on the 3D integration grid.
  | Initial density: Formal number of electrons (from input files) :      10.0000000000
  | Integrated number of electrons on 3D grid     :      10.0000067279
  | Charge integration error                      :       0.0000067279
  | Normalization factor for density and gradient :       0.9999993272
  Renormalizing the free-atom superposition density to the exact electron count on the 3D integration grid.
  | Formal number of electrons (from input files) :      10.0000000000
  | Integrated number of electrons on 3D grid     :      10.0000067279
  | Charge integration error                      :       0.0000067279
  | Normalization factor for density and gradient :       0.9999993272
  Obtaining max. number of non-zero basis functions in each batch (get_n_compute_maxes).
  | Maximal number of non-zero basis functions:      345 in task     0
  | Maximal number of non-zero basis functions:      385 in task     1
  | Maximal number of non-zero basis functions:      331 in task     2
  | Maximal number of non-zero basis functions:      422 in task     3
  | Maximal number of non-zero basis functions:      377 in task     4
  | Maximal number of non-zero basis functions:      341 in task     5
  | Maximal number of non-zero basis functions:      322 in task     6
  | Maximal number of non-zero basis functions:      374 in task     7
  | Maximal number of non-zero basis functions:      410 in task     8
  | Maximal number of non-zero basis functions:      419 in task     9
  | Maximal number of non-zero basis functions:      393 in task    10
  | Maximal number of non-zero basis functions:      345 in task    11
  | Maximal number of non-zero basis functions:      424 in task    12
  | Maximal number of non-zero basis functions:      431 in task    13
  | Maximal number of non-zero basis functions:      354 in task    14
  | Maximal number of non-zero basis functions:      353 in task    15
  Integrating Hamiltonian matrix: batch-based integration.
  Time summed over all CPUs for integration: real work        1.115 s, elapsed        1.211 s
  Integrating overlap matrix.
  Time summed over all CPUs for integration: real work        0.614 s, elapsed        0.655 s
  Deallocating overlap matrix.

  Updating Kohn-Sham eigenvalues and eigenvectors using ELSI and the ELPA eigensolver.
  Singularity check in k-point 1 (analysis for other k-points may follow below):
  Overlap matrix is not singular
  | Lowest and highest eigenvalues :  0.1814E-03,  0.6955E+01
  Finished singularity check of overlap matrix
  | Time :     0.003 s
  Starting ELPA eigensolver
  Finished Cholesky decomposition
  | Time :     0.003 s
  Finished transformation to standard eigenproblem
  | Time :     0.001 s
  Finished solving standard eigenproblem
  | Time :     0.004 s
  Finished back-transformation of eigenvectors
  | Time :     0.001 s

  Obtaining occupation numbers and electronic chemical potential using ELSI.
  | Note that, for insulating systems, the printed 'chemical potential' value is not uniquely defined.
  | It can be anywhere in the energy gap, as long as it correctly separates occupied and unoccupied states.
  | In systems with a gap, the physically relevant chemical potential is the VBM or HOMO.

  | Chemical potential (Fermi level):    -9.94760087 eV
  Writing Kohn-Sham eigenvalues.

  State    Occupation    Eigenvalue [Ha]    Eigenvalue [eV]
      1       2.00000         -19.034591         -517.95756
      2       2.00000          -1.146446          -31.19639
      3       2.00000          -0.674835          -18.36320
      4       2.00000          -0.530719          -14.44160
      5       2.00000          -0.459105          -12.49289
      6       0.00000          -0.108328           -2.94774
      7       0.00000           0.071725            1.95173
      8       0.00000           0.104812            2.85207
      9       0.00000           0.185403            5.04508
     10       0.00000           0.204072            5.55307
     11       0.00000           0.208332            5.66899
     12       0.00000           0.336698            9.16201
     13       0.00000           0.429795           11.69531
     14       0.00000           0.447728           12.18329
     15       0.00000           0.455107           12.38408
     16       0.00000           0.522140           14.20814
     17       0.00000           0.597921           16.27026
     18       0.00000           0.660945           17.98522
     19       0.00000           0.906085           24.65584
     20       0.00000           0.986873           26.85418
     21       0.00000           1.072211           29.17636
     22       0.00000           1.077320           29.31536
     23       0.00000           1.094317           29.77788
     24       0.00000           1.134213           30.86350
     25       0.00000           1.410573           38.38363
     26       0.00000           1.430797           38.93397
     27       0.00000           1.438503           39.14365
     28       0.00000           1.774880           48.29694
     29       0.00000           2.115838           57.57489
     30       0.00000           2.151530           58.54612
     31       0.00000           2.186067           59.48592
     32       0.00000           2.261319           61.53361
     33       0.00000           2.326482           63.30679
     34       0.00000           2.441398           66.43383
     35       0.00000           2.684138           73.03912
     36       0.00000           2.744887           74.69217
     37       0.00000           2.754808           74.96214
     38       0.00000           2.922231           79.51794
     39       0.00000           3.060931           83.29217
     40       0.00000           3.321442           90.38103
     41       0.00000           3.394588           92.37143
     42       0.00000           3.403464           92.61298
     43       0.00000           3.506201           95.40858
     44       0.00000           3.592649           97.76096
     45       0.00000           3.695618          100.56287
     46       0.00000           3.710076          100.95629
     47       0.00000           3.833284          104.30896
     48       0.00000           4.143062          112.73846
     49       0.00000           4.208196          114.51084
     50       0.00000           4.341913          118.14946
     51       0.00000           4.374991          119.04956
     52       0.00000           5.185046          141.09227
     53       0.00000           5.411083          147.24306
     54       0.00000           5.453981          148.41037
     55       0.00000           5.559717          151.28760
     56       0.00000           5.613474          152.75040
     57       0.00000           5.735662          156.07532
     58       0.00000           5.811561          158.14063
     59       0.00000           6.017983          163.75764
     60       0.00000           6.185382          168.31281
     61       0.00000           6.443067          175.32476
     62       0.00000           6.763861          184.05403
     63       0.00000           7.460241          203.00348
     64       0.00000           7.551883          205.49720
     65       0.00000           7.637117          207.81653
     66       0.00000           7.918710          215.47906
     67       0.00000           8.019876          218.23194
     68       0.00000           8.739715          237.81974
     69       0.00000           9.413444          256.15286

  Highest occupied state (VBM) at    -12.49289014 eV (relative to internal zero)
  | Occupation number:      2.00000000
  | K-point:       1 at    0.000000    0.000000    0.000000 (in units of recip. lattice)

  Lowest unoccupied state (CBM) at    -2.94774307 eV (relative to internal zero)
  | Occupation number:      0.00000000
  | K-point:       1 at    0.000000    0.000000    0.000000 (in units of recip. lattice)

  ESTIMATED overall HOMO-LUMO gap:      9.54514706 eV between HOMO at k-point 1 and LUMO at k-point 1
  The gap value is above 0.2 eV. Unless you are using a very sparse k-point grid,
  this system is most likely an insulator or a semiconductor.
  Calculating total energy contributions from superposition of free atom densities.

  Total energy components:
  | Sum of eigenvalues            :         -43.69139305 Ha       -1188.90329562 eV
  | XC energy correction          :          -9.04266188 Ha        -246.06334923 eV
  | XC potential correction       :          11.62809290 Ha         316.41650702 eV
  | Free-atom electrostatic energy:         -35.35749057 Ha        -962.12627078 eV
  | Hartree energy correction     :           0.00000000 Ha           0.00000000 eV
  | Entropy correction            :           0.00000000 Ha           0.00000000 eV
  | ---------------------------
  | Total energy                  :         -76.46345259 Ha       -2080.67640861 eV
  | Total energy, T -> 0          :         -76.46345259 Ha       -2080.67640861 eV  <-- do not rely on this value for anything but (periodic) metals
  | Electronic free energy        :         -76.46345259 Ha       -2080.67640861 eV

  Derived energy quantities:
  | Kinetic energy                :          75.56026402 Ha        2056.09939714 eV
  | Electrostatic energy          :        -142.98105473 Ha       -3890.71245653 eV
  | Energy correction for multipole
  | error in Hartree potential    :           0.00000000 Ha           0.00000000 eV
  | Sum of eigenvalues per atom                           :        -396.30109854 eV
  | Total energy (T->0) per atom                          :        -693.55880287 eV  <-- do not rely on this value for anything but (periodic) metals
  | Electronic free energy per atom                       :        -693.55880287 eV
  Initialize hartree_potential_storage
  Max. number of atoms included in rho_multipole:            3

  End scf initialization - timings             :  max(cpu_time)    wall_clock(cpu1)
  | Time for scf. initialization                :        0.292 s           0.290 s
  | Boundary condition initialization           :        0.052 s           0.049 s
  | Integration                                 :        0.124 s           0.122 s
  | Solution of K.-S. eqns.                     :        0.016 s           0.015 s
  | Grid partitioning                           :        0.052 s           0.050 s
  | Preloading free-atom quantities on grid     :        0.084 s           0.080 s
  | Free-atom superposition energy              :        0.012 s           0.011 s
  | Total energy evaluation                     :        0.004 s           0.001 s

  Partial memory accounting:
  | Current value for overall tracked memory usage:
  |   Minimum:        0.720 MB (on task  5)
  |   Maximum:        0.725 MB (on task  0)
  |   Average:        0.721 MB
  | Peak value for overall tracked memory usage:
  |   Minimum:        3.233 MB (on task  6 after allocating wave)
  |   Maximum:        4.281 MB (on task 13 after allocating wave)
  |   Average:        3.746 MB
  | Largest tracked array allocation so far:
  |   Minimum:        0.791 MB (hamiltonian_shell on task  6)
  |   Maximum:        1.417 MB (hamiltonian_shell on task 13)
  |   Average:        1.092 MB
  Note:  These values currently only include a subset of arrays which are explicitly tracked.
  The "true" memory usage will be greater.
------------------------------------------------------------
  Evaluating new KS density using the density matrix
  Evaluating density matrix
  Finished density matrix calculation
  | Time :     0.000 s
  Time summed over all CPUs for getting density from density matrix: real work        1.990 s, elapsed        2.146 s
  Integration grid: deviation in total charge (<rho> - N_e) =   5.329071E-15

  Time for density update prior                :  max(cpu_time)    wall_clock(cpu1)
  | self-consistency iterative process          :        0.140 s           0.138 s

------------------------------------------------------------
          Begin self-consistency iteration #    1

  Date     :  20221003, Time     :  100819.741
------------------------------------------------------------
  Pulay mixing of updated and previous charge densities.
  Renormalizing the density to the exact electron count on the 3D integration grid.
  | Formal number of electrons (from input files) :      10.0000000000
  | Integrated number of electrons on 3D grid     :       9.9996467111
  | Charge integration error                      :      -0.0003532889
  | Normalization factor for density and gradient :       1.0000353301

  Evaluating partitioned Hartree potential by multipole expansion.
  | Original multipole sum: apparent total charge =  -0.721021E-15
  | Sum of charges compensated after spline to logarithmic grids =   0.738558E-07
  | Analytical far-field extrapolation by fixed multipoles:
  | Hartree multipole sum: apparent total charge =  -0.722559E-15
  Summing up the Hartree potential.
  Time summed over all CPUs for potential: real work        2.417 s, elapsed        2.475 s
  | RMS charge density error from multipole expansion :   0.135416E-03
  | Average real-space part of the electrostatic potential :      0.01022097 eV

  Integrating Hamiltonian matrix: batch-based integration.
  Time summed over all CPUs for integration: real work        1.055 s, elapsed        1.099 s

  Updating Kohn-Sham eigenvalues and eigenvectors using ELSI and the ELPA eigensolver.
  Starting ELPA eigensolver
  Finished transformation to standard eigenproblem
  | Time :     0.001 s
  Finished solving standard eigenproblem
  | Time :     0.005 s
  Finished back-transformation of eigenvectors
  | Time :     0.000 s

  Obtaining occupation numbers and electronic chemical potential using ELSI.
  | Note that, for insulating systems, the printed 'chemical potential' value is not uniquely defined.
  | It can be anywhere in the energy gap, as long as it correctly separates occupied and unoccupied states.
  | In systems with a gap, the physically relevant chemical potential is the VBM or HOMO.

  | Chemical potential (Fermi level):    -9.41895753 eV
  Writing Kohn-Sham eigenvalues.

  State    Occupation    Eigenvalue [Ha]    Eigenvalue [eV]
      1       2.00000         -19.001920         -517.06856
      2       2.00000          -1.131418          -30.78744
      3       2.00000          -0.661573          -18.00232
      4       2.00000          -0.515338          -14.02307
      5       2.00000          -0.443182          -12.05961
      6       0.00000          -0.106927           -2.90965
      7       0.00000           0.075548            2.05577
      8       0.00000           0.107825            2.93406
      9       0.00000           0.188659            5.13366
     10       0.00000           0.206448            5.61774
     11       0.00000           0.210733            5.73433
     12       0.00000           0.339072            9.22662
     13       0.00000           0.432354           11.76495
     14       0.00000           0.451151           12.27645
     15       0.00000           0.458328           12.47173
     16       0.00000           0.526157           14.31747
     17       0.00000           0.601260           16.36112
     18       0.00000           0.665528           18.10994
     19       0.00000           0.907897           24.70512
     20       0.00000           0.990381           26.94964
     21       0.00000           1.076646           29.29703
     22       0.00000           1.081619           29.43234
     23       0.00000           1.099627           29.92238
     24       0.00000           1.141146           31.05217
     25       0.00000           1.416972           38.55778
     26       0.00000           1.440241           39.19095
     27       0.00000           1.449024           39.42994
     28       0.00000           1.782025           48.49138
     29       0.00000           2.121363           57.72522
     30       0.00000           2.157919           58.71996
     31       0.00000           2.192977           59.67394
     32       0.00000           2.270511           61.78376
     33       0.00000           2.331856           63.45302
     34       0.00000           2.451769           66.71604
     35       0.00000           2.690784           73.21995
     36       0.00000           2.751638           74.87588
     37       0.00000           2.759950           75.10207
     38       0.00000           2.926107           79.62341
     39       0.00000           3.072950           83.61923
     40       0.00000           3.333226           90.70171
     41       0.00000           3.401331           92.55492
     42       0.00000           3.410954           92.81678
     43       0.00000           3.512949           95.59222
     44       0.00000           3.596828           97.87466
     45       0.00000           3.702573          100.75214
     46       0.00000           3.722084          101.28305
     47       0.00000           3.841975          104.54545
     48       0.00000           4.154177          113.04091
     49       0.00000           4.212136          114.61805
     50       0.00000           4.351965          118.42299
     51       0.00000           4.384393          119.30541
     52       0.00000           5.194894          141.36026
     53       0.00000           5.419765          147.47931
     54       0.00000           5.462310          148.63702
     55       0.00000           5.569942          151.56585
     56       0.00000           5.623114          153.01271
     57       0.00000           5.744534          156.31672
     58       0.00000           5.819690          158.36182
     59       0.00000           6.027783          164.02432
     60       0.00000           6.195879          168.59845
     61       0.00000           6.453625          175.61208
     62       0.00000           6.773179          184.30759
     63       0.00000           7.471866          203.31983
     64       0.00000           7.564104          205.82973
     65       0.00000           7.648274          208.12014
     66       0.00000           7.929587          215.77504
     67       0.00000           8.032623          218.57881
     68       0.00000           8.751234          238.13318
     69       0.00000           9.425935          256.49274

  Highest occupied state (VBM) at    -12.05960848 eV (relative to internal zero)
  | Occupation number:      2.00000000
  | K-point:       1 at    0.000000    0.000000    0.000000 (in units of recip. lattice)

  Lowest unoccupied state (CBM) at    -2.90964509 eV (relative to internal zero)
  | Occupation number:      0.00000000
  | K-point:       1 at    0.000000    0.000000    0.000000 (in units of recip. lattice)

  ESTIMATED overall HOMO-LUMO gap:      9.14996339 eV between HOMO at k-point 1 and LUMO at k-point 1
  The gap value is above 0.2 eV. Unless you are using a very sparse k-point grid,
  this system is most likely an insulator or a semiconductor.

  Total energy components:
  | Sum of eigenvalues            :         -43.50686397 Ha       -1183.88200380 eV
  | XC energy correction          :          -9.06446240 Ha        -246.65657175 eV
  | XC potential correction       :          11.65639355 Ha         317.18660688 eV
  | Free-atom electrostatic energy:         -35.35749057 Ha        -962.12627078 eV
  | Hartree energy correction     :          -0.17541249 Ha          -4.77321663 eV
  | Entropy correction            :           0.00000000 Ha           0.00000000 eV
  | ---------------------------
  | Total energy                  :         -76.44783587 Ha       -2080.25145608 eV
  | Total energy, T -> 0          :         -76.44783587 Ha       -2080.25145608 eV  <-- do not rely on this value for anything but (periodic) metals
  | Electronic free energy        :         -76.44783587 Ha       -2080.25145608 eV

  Derived energy quantities:
  | Kinetic energy                :          75.70497142 Ha        2060.03708581 eV
  | Electrostatic energy          :        -143.08834489 Ha       -3893.63197014 eV
  | Energy correction for multipole
  | error in Hartree potential    :          -0.00015542 Ha          -0.00422931 eV
  | Sum of eigenvalues per atom                           :        -394.62733460 eV
  | Total energy (T->0) per atom                          :        -693.41715203 eV  <-- do not rely on this value for anything but (periodic) metals
  | Electronic free energy per atom                       :        -693.41715203 eV
  Evaluating new KS density using the density matrix
  Evaluating density matrix
  Finished density matrix calculation
  | Time :     0.000 s
  Time summed over all CPUs for getting density from density matrix: real work        2.067 s, elapsed        2.199 s
  Integration grid: deviation in total charge (<rho> - N_e) =   8.881784E-15

  Self-consistency convergence accuracy:
  | Change of charge density      :  0.3456E+00
  | Change of unmixed KS density  :  0.9119E+01
  | Change of sum of eigenvalues  :  0.5021E+01 eV
  | Change of total energy        :  0.4250E+00 eV


------------------------------------------------------------
  End self-consistency iteration #     1       :  max(cpu_time)    wall_clock(cpu1)
  | Time for this iteration                     :        0.480 s           0.477 s
  | Charge density update                       :        0.144 s           0.141 s
  | Density mixing & preconditioning            :        0.084 s           0.082 s
  | Hartree multipole update                    :        0.004 s           0.004 s
  | Hartree multipole summation                 :        0.168 s           0.165 s
  | Integration                                 :        0.072 s           0.072 s
  | Solution of K.-S. eqns.                     :        0.008 s           0.007 s
  | Total energy evaluation                     :        0.008 s           0.001 s

  Partial memory accounting:
  | Current value for overall tracked memory usage:
  |   Minimum:        0.720 MB (on task  5)
  |   Maximum:        0.725 MB (on task  0)
  |   Average:        0.721 MB
  | Peak value for overall tracked memory usage:
  |   Minimum:        3.988 MB (on task  6 after allocating gradient_basis_wave)
  |   Maximum:        5.452 MB (on task 13 after allocating gradient_basis_wave)
  |   Average:        4.710 MB
  | Largest tracked array allocation so far:
  |   Minimum:        1.238 MB (gradient_basis_wave on task  6)
  |   Maximum:        1.657 MB (gradient_basis_wave on task 13)
  |   Average:        1.448 MB
  Note:  These values currently only include a subset of arrays which are explicitly tracked.
  The "true" memory usage will be greater.
------------------------------------------------------------

------------------------------------------------------------
          Begin self-consistency iteration #    2

  Date     :  20221003, Time     :  100820.222
------------------------------------------------------------
  Pulay mixing of updated and previous charge densities.
  Renormalizing the density to the exact electron count on the 3D integration grid.
  | Formal number of electrons (from input files) :      10.0000000000
  | Integrated number of electrons on 3D grid     :       9.9968654008
  | Charge integration error                      :      -0.0031345992
  | Normalization factor for density and gradient :       1.0003135582

  Evaluating partitioned Hartree potential by multipole expansion.
  | Original multipole sum: apparent total charge =   0.638311E-14
  | Sum of charges compensated after spline to logarithmic grids =   0.669795E-06
  | Analytical far-field extrapolation by fixed multipoles:
  | Hartree multipole sum: apparent total charge =   0.682587E-14
  Summing up the Hartree potential.
  Time summed over all CPUs for potential: real work        2.796 s, elapsed        3.174 s
  | RMS charge density error from multipole expansion :   0.127347E-02
  | Average real-space part of the electrostatic potential :      0.09587053 eV

  Integrating Hamiltonian matrix: batch-based integration.
  Time summed over all CPUs for integration: real work        1.051 s, elapsed        1.093 s

  Updating Kohn-Sham eigenvalues and eigenvectors using ELSI and the ELPA eigensolver.
  Starting ELPA eigensolver
  Finished transformation to standard eigenproblem
  | Time :     0.001 s
  Finished solving standard eigenproblem
  | Time :     0.004 s
  Finished back-transformation of eigenvectors
  | Time :     0.000 s

  Obtaining occupation numbers and electronic chemical potential using ELSI.
  | Note that, for insulating systems, the printed 'chemical potential' value is not uniquely defined.
  | It can be anywhere in the energy gap, as long as it correctly separates occupied and unoccupied states.
  | In systems with a gap, the physically relevant chemical potential is the VBM or HOMO.

  | Chemical potential (Fermi level):    -5.12600107 eV
  Highest occupied state (VBM) at     -8.65069278 eV (relative to internal zero)
  | Occupation number:      2.00000000
  | K-point:       1 at    0.000000    0.000000    0.000000 (in units of recip. lattice)

  Lowest unoccupied state (CBM) at    -2.58584654 eV (relative to internal zero)
  | Occupation number:      0.00000000
  | K-point:       1 at    0.000000    0.000000    0.000000 (in units of recip. lattice)

  ESTIMATED overall HOMO-LUMO gap:      6.06484624 eV between HOMO at k-point 1 and LUMO at k-point 1
  The gap value is above 0.2 eV. Unless you are using a very sparse k-point grid,
  this system is most likely an insulator or a semiconductor.

  Checking to see if s.c.f. parameters should be adjusted.
  The system likely has a gap. Increased the default Pulay mixing parameter (charge_mix_param). Value:   0.200000 .
  Kept the default occupation width. Value:   0.010000 eV.

  Total energy components:
  | Sum of eigenvalues            :         -42.04090993 Ha       -1143.99136485 eV
  | XC energy correction          :          -9.24780262 Ha        -251.64551280 eV
  | XC potential correction       :          11.89435378 Ha         323.66183420 eV
  | Free-atom electrostatic energy:         -35.35749057 Ha        -962.12627078 eV
  | Hartree energy correction     :          -1.62745396 Ha         -44.28527545 eV
  | Entropy correction            :           0.00000000 Ha           0.00000000 eV
  | ---------------------------
  | Total energy                  :         -76.37930329 Ha       -2078.38658968 eV
  | Total energy, T -> 0          :         -76.37930329 Ha       -2078.38658968 eV  <-- do not rely on this value for anything but (periodic) metals
  | Electronic free energy        :         -76.37930329 Ha       -2078.38658968 eV

  Derived energy quantities:
  | Kinetic energy                :          76.76818631 Ha        2088.96863495 eV
  | Electrostatic energy          :        -143.89968698 Ha       -3915.70971183 eV
  | Energy correction for multipole
  | error in Hartree potential    :          -0.00141515 Ha          -0.03850817 eV
  | Sum of eigenvalues per atom                           :        -381.33045495 eV
  | Total energy (T->0) per atom                          :        -692.79552989 eV  <-- do not rely on this value for anything but (periodic) metals
  | Electronic free energy per atom                       :        -692.79552989 eV
  Evaluating new KS density using the density matrix
  Evaluating density matrix
  Finished density matrix calculation
  | Time :     0.000 s
  Time summed over all CPUs for getting density from density matrix: real work        2.055 s, elapsed        2.477 s
  Integration grid: deviation in total charge (<rho> - N_e) =   1.065814E-14

  Self-consistency convergence accuracy:
  | Change of charge density      :  0.3129E+00
  | Change of unmixed KS density  :  0.2352E-01
  | Change of sum of eigenvalues  :  0.3989E+02 eV
  | Change of total energy        :  0.1865E+01 eV


------------------------------------------------------------
  End self-consistency iteration #     2       :  max(cpu_time)    wall_clock(cpu1)
  | Time for this iteration                     :        0.556 s           0.554 s
  | Charge density update                       :        0.160 s           0.158 s
  | Density mixing & preconditioning            :        0.080 s           0.076 s
  | Hartree multipole update                    :        0.004 s           0.004 s
  | Hartree multipole summation                 :        0.236 s           0.235 s
  | Integration                                 :        0.072 s           0.071 s
  | Solution of K.-S. eqns.                     :        0.008 s           0.007 s
  | Total energy evaluation                     :        0.004 s           0.002 s

  Partial memory accounting:
  | Current value for overall tracked memory usage:
  |   Minimum:        0.721 MB (on task  5)
  |   Maximum:        0.725 MB (on task  0)
  |   Average:        0.722 MB
  | Peak value for overall tracked memory usage:
  |   Minimum:        3.988 MB (on task  6 after allocating gradient_basis_wave)
  |   Maximum:        5.453 MB (on task 13 after allocating gradient_basis_wave)
  |   Average:        4.710 MB
  | Largest tracked array allocation so far:
  |   Minimum:        1.238 MB (gradient_basis_wave on task  6)
  |   Maximum:        1.657 MB (gradient_basis_wave on task 13)
  |   Average:        1.448 MB
  Note:  These values currently only include a subset of arrays which are explicitly tracked.
  The "true" memory usage will be greater.
------------------------------------------------------------

------------------------------------------------------------
          Begin self-consistency iteration #    3

  Date     :  20221003, Time     :  100820.779
------------------------------------------------------------
  Pulay mixing of updated and previous charge densities.
  Renormalizing the density to the exact electron count on the 3D integration grid.
  | Formal number of electrons (from input files) :      10.0000000000
  | Integrated number of electrons on 3D grid     :       9.9982854521
  | Charge integration error                      :      -0.0017145479
  | Normalization factor for density and gradient :       1.0001714842

  Evaluating partitioned Hartree potential by multipole expansion.
  | Original multipole sum: apparent total charge =   0.180793E-14
  | Sum of charges compensated after spline to logarithmic grids =   0.372508E-06
  | Analytical far-field extrapolation by fixed multipoles:
  | Hartree multipole sum: apparent total charge =   0.191862E-14
  Summing up the Hartree potential.
  Time summed over all CPUs for potential: real work        2.800 s, elapsed        2.876 s
  | RMS charge density error from multipole expansion :   0.165721E-02
  | Average real-space part of the electrostatic potential :      0.09995243 eV

  Integrating Hamiltonian matrix: batch-based integration.
  Time summed over all CPUs for integration: real work        1.060 s, elapsed        1.539 s => Consider using load balancing!

  Updating Kohn-Sham eigenvalues and eigenvectors using ELSI and the ELPA eigensolver.
  Starting ELPA eigensolver
  Finished transformation to standard eigenproblem
  | Time :     0.001 s
  Finished solving standard eigenproblem
  | Time :     0.004 s
  Finished back-transformation of eigenvectors
  | Time :     0.000 s

  Obtaining occupation numbers and electronic chemical potential using ELSI.
  | Note that, for insulating systems, the printed 'chemical potential' value is not uniquely defined.
  | It can be anywhere in the energy gap, as long as it correctly separates occupied and unoccupied states.
  | In systems with a gap, the physically relevant chemical potential is the VBM or HOMO.

  | Chemical potential (Fermi level):    -6.17832392 eV
  Highest occupied state (VBM) at     -9.23775067 eV (relative to internal zero)
  | Occupation number:      2.00000000
  | K-point:       1 at    0.000000    0.000000    0.000000 (in units of recip. lattice)

  Lowest unoccupied state (CBM) at    -2.60902409 eV (relative to internal zero)
  | Occupation number:      0.00000000
  | K-point:       1 at    0.000000    0.000000    0.000000 (in units of recip. lattice)

  ESTIMATED overall HOMO-LUMO gap:      6.62872658 eV between HOMO at k-point 1 and LUMO at k-point 1
  The gap value is above 0.2 eV. Unless you are using a very sparse k-point grid,
  this system is most likely an insulator or a semiconductor.

  Total energy components:
  | Sum of eigenvalues            :         -42.36489454 Ha       -1152.80743466 eV
  | XC energy correction          :          -9.20722307 Ha        -250.54128718 eV
  | XC potential correction       :          11.84222251 Ha         322.24327005 eV
  | Free-atom electrostatic energy:         -35.35749057 Ha        -962.12627078 eV
  | Hartree energy correction     :          -1.29617540 Ha         -35.27072705 eV
  | Entropy correction            :           0.00000000 Ha           0.00000000 eV
  | ---------------------------
  | Total energy                  :         -76.38356107 Ha       -2078.50244962 eV
  | Total energy, T -> 0          :         -76.38356107 Ha       -2078.50244962 eV  <-- do not rely on this value for anything but (periodic) metals
  | Electronic free energy        :         -76.38356107 Ha       -2078.50244962 eV

  Derived energy quantities:
  | Kinetic energy                :          76.28645063 Ha        2075.85994019 eV
  | Electrostatic energy          :        -143.46278862 Ha       -3903.82110263 eV
  | Energy correction for multipole
  | error in Hartree potential    :          -0.00087723 Ha          -0.02387054 eV
  | Sum of eigenvalues per atom                           :        -384.26914489 eV
  | Total energy (T->0) per atom                          :        -692.83414987 eV  <-- do not rely on this value for anything but (periodic) metals
  | Electronic free energy per atom                       :        -692.83414987 eV
  Evaluating new KS density using the density matrix
  Evaluating density matrix
  Finished density matrix calculation
  | Time :     0.000 s
  Time summed over all CPUs for getting density from density matrix: real work        2.033 s, elapsed        2.183 s
  Integration grid: deviation in total charge (<rho> - N_e) =  -3.552714E-15

  Self-consistency convergence accuracy:
  | Change of charge density      :  0.1230E+00
  | Change of unmixed KS density  :  0.1975E+00
  | Change of sum of eigenvalues  : -0.8816E+01 eV
  | Change of total energy        : -0.1159E+00 eV


------------------------------------------------------------
  End self-consistency iteration #     3       :  max(cpu_time)    wall_clock(cpu1)
  | Time for this iteration                     :        0.524 s           0.522 s
  | Charge density update                       :        0.140 s           0.140 s
  | Density mixing & preconditioning            :        0.080 s           0.078 s
  | Hartree multipole update                    :        0.004 s           0.004 s
  | Hartree multipole summation                 :        0.196 s           0.192 s
  | Integration                                 :        0.100 s           0.099 s
  | Solution of K.-S. eqns.                     :        0.008 s           0.007 s
  | Total energy evaluation                     :        0.004 s           0.001 s

  Partial memory accounting:
  | Current value for overall tracked memory usage:
  |   Minimum:        0.721 MB (on task  5)
  |   Maximum:        0.725 MB (on task  0)
  |   Average:        0.722 MB
  | Peak value for overall tracked memory usage:
  |   Minimum:        3.988 MB (on task  6 after allocating gradient_basis_wave)
  |   Maximum:        5.453 MB (on task 13 after allocating gradient_basis_wave)
  |   Average:        4.710 MB
  | Largest tracked array allocation so far:
  |   Minimum:        1.238 MB (gradient_basis_wave on task  6)
  |   Maximum:        1.657 MB (gradient_basis_wave on task 13)
  |   Average:        1.448 MB
  Note:  These values currently only include a subset of arrays which are explicitly tracked.
  The "true" memory usage will be greater.
------------------------------------------------------------

------------------------------------------------------------
          Begin self-consistency iteration #    4

  Date     :  20221003, Time     :  100821.328
------------------------------------------------------------
  Pulay mixing of updated and previous charge densities.
  Renormalizing the density to the exact electron count on the 3D integration grid.
  | Formal number of electrons (from input files) :      10.0000000000
  | Integrated number of electrons on 3D grid     :       9.9961202052
  | Charge integration error                      :      -0.0038797948
  | Normalization factor for density and gradient :       1.0003881301

  Evaluating partitioned Hartree potential by multipole expansion.
  | Original multipole sum: apparent total charge =   0.683817E-14
  | Sum of charges compensated after spline to logarithmic grids =   0.390856E-06
  | Analytical far-field extrapolation by fixed multipoles:
  | Hartree multipole sum: apparent total charge =   0.708415E-14
  Summing up the Hartree potential.
  Time summed over all CPUs for potential: real work        2.881 s, elapsed        2.957 s
  | RMS charge density error from multipole expansion :   0.277716E-02
  | Average real-space part of the electrostatic potential :      0.15578946 eV

  Integrating Hamiltonian matrix: batch-based integration.
  Time summed over all CPUs for integration: real work        1.049 s, elapsed        1.090 s

  Updating Kohn-Sham eigenvalues and eigenvectors using ELSI and the ELPA eigensolver.
  Starting ELPA eigensolver
  Finished transformation to standard eigenproblem
  | Time :     0.001 s
  Finished solving standard eigenproblem
  | Time :     0.005 s
  Finished back-transformation of eigenvectors
  | Time :     0.000 s

  Obtaining occupation numbers and electronic chemical potential using ELSI.
  | Note that, for insulating systems, the printed 'chemical potential' value is not uniquely defined.
  | It can be anywhere in the energy gap, as long as it correctly separates occupied and unoccupied states.
  | In systems with a gap, the physically relevant chemical potential is the VBM or HOMO.

  | Chemical potential (Fermi level):    -4.78484040 eV
  Highest occupied state (VBM) at     -7.93346343 eV (relative to internal zero)
  | Occupation number:      2.00000000
  | K-point:       1 at    0.000000    0.000000    0.000000 (in units of recip. lattice)

  Lowest unoccupied state (CBM) at    -2.40462338 eV (relative to internal zero)
  | Occupation number:      0.00000000
  | K-point:       1 at    0.000000    0.000000    0.000000 (in units of recip. lattice)

  ESTIMATED overall HOMO-LUMO gap:      5.52884006 eV between HOMO at k-point 1 and LUMO at k-point 1
  The gap value is above 0.2 eV. Unless you are using a very sparse k-point grid,
  this system is most likely an insulator or a semiconductor.

  Total energy components:
  | Sum of eigenvalues            :         -41.86748160 Ha       -1139.27213982 eV
  | XC energy correction          :          -9.27895277 Ha        -252.49315145 eV
  | XC potential correction       :          11.93630138 Ha         324.80328647 eV
  | Free-atom electrostatic energy:         -35.35749057 Ha        -962.12627078 eV
  | Hartree energy correction     :          -1.80572103 Ha         -49.13616919 eV
  | Entropy correction            :           0.00000000 Ha           0.00000000 eV
  | ---------------------------
  | Total energy                  :         -76.37334457 Ha       -2078.22444477 eV
  | Total energy, T -> 0          :         -76.37334457 Ha       -2078.22444477 eV  <-- do not rely on this value for anything but (periodic) metals
  | Electronic free energy        :         -76.37334457 Ha       -2078.22444477 eV

  Derived energy quantities:
  | Kinetic energy                :          76.35658610 Ha        2077.76842356 eV
  | Electrostatic energy          :        -143.45097791 Ha       -3903.49971688 eV
  | Energy correction for multipole
  | error in Hartree potential    :          -0.00108426 Ha          -0.02950411 eV
  | Sum of eigenvalues per atom                           :        -379.75737994 eV
  | Total energy (T->0) per atom                          :        -692.74148159 eV  <-- do not rely on this value for anything but (periodic) metals
  | Electronic free energy per atom                       :        -692.74148159 eV
  Evaluating new KS density using the density matrix
  Evaluating density matrix
  Finished density matrix calculation
  | Time :     0.001 s
  Time summed over all CPUs for getting density from density matrix: real work        2.034 s, elapsed        2.221 s
  Integration grid: deviation in total charge (<rho> - N_e) =   3.552714E-15

  Self-consistency convergence accuracy:
  | Change of charge density      :  0.1120E+00
  | Change of unmixed KS density  :  0.5857E-01
  | Change of sum of eigenvalues  :  0.1354E+02 eV
  | Change of total energy        :  0.2780E+00 eV


------------------------------------------------------------
  End self-consistency iteration #     4       :  max(cpu_time)    wall_clock(cpu1)
  | Time for this iteration                     :        0.532 s           0.529 s
  | Charge density update                       :        0.144 s           0.142 s
  | Density mixing & preconditioning            :        0.084 s           0.082 s
  | Hartree multipole update                    :        0.004 s           0.004 s
[...]
 FOU -3.146587637434934E-005  1.037954933218161E-004 -3.256147615762330E-006
  1.373303630064027E-004 -9.237015672053470E-005  9.119559398845583E-005
  1.465938806484264E-005 -1.497011440404841E-005 -8.692988395702873E-005
 FOU  0.000000000000000E+000  0.000000000000000E+000  0.000000000000000E+000
  0.000000000000000E+000  0.000000000000000E+000  0.000000000000000E+000
  0.000000000000000E+000  0.000000000000000E+000  0.000000000000000E+000
 FOU  0.000000000000000E+000  0.000000000000000E+000  0.000000000000000E+000
 FOU  0.000000000000000E+000  0.000000000000000E+000  0.000000000000000E+000
  0.000000000000000E+000  0.000000000000000E+000  0.000000000000000E+000
  0.000000000000000E+000  0.000000000000000E+000  0.000000000000000E+000
  0.000000000000000E+000  0.000000000000000E+000  0.000000000000000E+000
  0.000000000000000E+000  0.000000000000000E+000  0.000000000000000E+000
  0.000000000000000E+000  0.000000000000000E+000  0.000000000000000E+000
  0.000000000000000E+000  0.000000000000000E+000  0.000000000000000E+000
  0.000000000000000E+000  0.000000000000000E+000  0.000000000000000E+000
  0.000000000000000E+000  0.000000000000000E+000  0.000000000000000E+000
  5.079725838809308E-005 -4.926704031426186E-004 -2.432585916127368E-004
 -2.558112775146782E-006 -2.127390344333183E-004  4.498851674168259E-003
  End CPSCF iteration #     5                  :  max(cpu_time)    wall_clock(cpu1)
  | Time for this iteration                     :        1.336 s           1.332 s
  | first_order_DM                              :        0.004 s           0.003 s
  | first_order_density                         :        0.136 s           0.136 s
  | first_order_potential                       :        0.264 s           0.263 s
  | first_order_H                               :        0.924 s           0.921 s
  | Solution of Sternheimer eqns.               :        0.004 s           0.004 s
------------------------------------------------------------

--------------------- CPSCF ---------------------------------------
          Begin CP-self-consistency iteration #    6

  Date     :  20221003, Time     :  100851.814
------------------------------------------------------------

  CPSCF convergence accuracy:
  | Change of first_order_density_matrix     :  0.7021E-03
  Integrating first_order_rho: batch-based integration.
  Time summed over all CPUs for integration: real work        1.947 s, elapsed        2.107 s

  Evaluating partitioned Hartree potential by multipole expansion.
  | Original multipole sum: apparent total charge =   0.184483E-14
  | Sum of charges compensated after spline to logarithmic grids =   0.364807E-06
  | Analytical far-field extrapolation by fixed multipoles:
  | Hartree multipole sum: apparent total charge =   0.146971E-14
  Summing up the Hartree potential.
  Time summed over all CPUs for potential: real work        3.466 s, elapsed        3.827 s
  | RMS delta_rho error from multipole expansion :   0.205601E-01

  Integrating first-order-Hamiltonian matrix: batch-based integration.
  Time summed over all CPUs for integration: real work       13.569 s, elapsed       14.956 s
 FOH  2.060960669703625E-002 -3.968375605442600E-005 -3.607498702384244E-005
  0.000000000000000E+000  5.183551611862142E-003  3.332977717876104E-003
  0.000000000000000E+000  0.000000000000000E+000  1.603300023387470E-002
 FOH  1.097369996177065E-002 -2.455107933772156E-003  9.867617153152481E-004
  0.000000000000000E+000  1.090524197714034E-002  8.537318455210810E-006
  0.000000000000000E+000  0.000000000000000E+000  5.437006225727291E-003
 FOH  0.000000000000000E+000  0.000000000000000E+000  0.000000000000000E+000
  0.000000000000000E+000  0.000000000000000E+000  0.000000000000000E+000
  0.000000000000000E+000  0.000000000000000E+000  0.000000000000000E+000
 FOH  0.000000000000000E+000  0.000000000000000E+000  0.000000000000000E+000
 FOH  0.000000000000000E+000  0.000000000000000E+000  0.000000000000000E+000
  0.000000000000000E+000  0.000000000000000E+000  0.000000000000000E+000
  0.000000000000000E+000  0.000000000000000E+000  0.000000000000000E+000
 FOH  0.000000000000000E+000  0.000000000000000E+000  0.000000000000000E+000
  0.000000000000000E+000  0.000000000000000E+000  0.000000000000000E+000
  0.000000000000000E+000  0.000000000000000E+000  0.000000000000000E+000
 FOH  0.000000000000000E+000  0.000000000000000E+000  0.000000000000000E+000
 FOH -9.842812502839451E-004  2.850821444412399E-003 -7.338249751968698E-004
 -2.647921578669036E-005 -1.472231253644267E-003  5.979256241976404E-002
  3.558966023624583E-003 -3.131503714558293E-003 -6.992692411079116E-002
 FOH -1.760602234620830E-003 -7.736156707199656E-005  5.319770735513562E-007
  8.685262782686503E-003  3.395308385424730E-004 -1.974701658871767E-004
  7.567971671172695E-003  5.612371603604079E-004  1.874595328343976E-005
 FOH -3.133153341171867E-006  2.547924100948758E-005  7.368187718659383E-006
  8.030304309162107E-006  2.243821578217486E-004  2.349246986114283E-005
  2.460305309997873E-005 -2.496889043704997E-004 -1.761520607516100E-004
  0.000000000000000E+000  0.000000000000000E+000  0.000000000000000E+000
 FOH  5.302372803962366E-002 -1.929595282758582E-002 -1.160270631365980E-003
  1.268428633377006E-003  3.981404876001462E-005  3.546331435604516E-002
  6.601946551156521E-004  2.725566240456088E-005 -1.185493128173975E-002
 FOH -1.510449045221513E-003 -7.391952267224728E-004  3.016478189300717E-002
 FOH -7.960697830096945E-003  3.521802045015172E-005 -6.998468399522597E-003
  0.000000000000000E+000 -8.855964458418575E-003  1.408670601850769E-002
  0.000000000000000E+000  0.000000000000000E+000 -8.720942583391879E-003
 FOH -2.304690878654877E-003 -2.054500997669532E-005 -3.602305207152593E-004
 -1.349353663911987E-005  6.991973809818457E-004 -8.941305022506508E-005
  4.174121427163968E-005  2.786981066365515E-003 -1.903417632645275E-005
  0.000000000000000E+000  0.000000000000000E+000  0.000000000000000E+000
 FOH  9.062178559325595E-003 -1.666913418297249E-003  1.106565986709510E-004
  0.000000000000000E+000  8.886815181373756E-003  6.550866454605814E-004
  0.000000000000000E+000  0.000000000000000E+000  9.396736453779916E-003
  1.346408997422278E-002 -1.738968032189612E-002  2.001670446217371E-003
 FOH  0.000000000000000E+000  0.000000000000000E+000  0.000000000000000E+000
  0.000000000000000E+000  0.000000000000000E+000  0.000000000000000E+000
  1.603889305220169E-003 -7.104646850273161E-004 -2.251486263529766E-002
  0.000000000000000E+000  0.000000000000000E+000  0.000000000000000E+000
  0.000000000000000E+000  0.000000000000000E+000  0.000000000000000E+000
  0.000000000000000E+000  0.000000000000000E+000  0.000000000000000E+000
 FOU  3.147301901339423E-005 -1.373185294358262E-004 -1.474592331915635E-005
 -1.035591664915948E-004  9.216064667670642E-005  1.478185969787755E-005
 FOU  0.000000000000000E+000  0.000000000000000E+000  0.000000000000000E+000
 FOU -9.111778327038332E-005  2.509401477488718E-004 -1.057009474397612E-005
 -2.385312254313690E-004  9.938635818310148E-003  6.984146714499436E-006
  3.641836565451373E-004 -2.148030601475621E-003  1.074351189607394E-003
 FOU  0.000000000000000E+000  0.000000000000000E+000  0.000000000000000E+000
  0.000000000000000E+000  0.000000000000000E+000  0.000000000000000E+000
  0.000000000000000E+000  0.000000000000000E+000  0.000000000000000E+000
 FOU  0.000000000000000E+000  0.000000000000000E+000  0.000000000000000E+000
 FOU  0.000000000000000E+000  0.000000000000000E+000  0.000000000000000E+000
  0.000000000000000E+000  0.000000000000000E+000  0.000000000000000E+000
  0.000000000000000E+000  0.000000000000000E+000  0.000000000000000E+000
 FOU  0.000000000000000E+000  0.000000000000000E+000  0.000000000000000E+000
  0.000000000000000E+000  0.000000000000000E+000  0.000000000000000E+000
  0.000000000000000E+000  0.000000000000000E+000  0.000000000000000E+000
  3.860665253681044E-006 -9.117059457430310E-005  8.700575038123971E-005
 FOU -2.152752362107148E-005 -5.078361420174345E-005  2.564210609914349E-006
  2.334995608127670E-003  4.930378702899039E-004  2.125682876596886E-004
 -3.638740031470437E-003  2.409839892309352E-004 -4.499744784240173E-003
 FOU  0.000000000000000E+000  0.000000000000000E+000  0.000000000000000E+000
  0.000000000000000E+000  0.000000000000000E+000  0.000000000000000E+000
  0.000000000000000E+000  0.000000000000000E+000  0.000000000000000E+000
 FOU  2.152722116344809E-005 -2.334986333456230E-003  3.638987615020541E-003
  5.078334105565313E-005 -4.929873853819055E-004 -2.412063587291201E-004
 -2.564191223287270E-006 -2.125411014194648E-004  4.499585530441726E-003
 FOU  0.000000000000000E+000  0.000000000000000E+000  0.000000000000000E+000
  0.000000000000000E+000  0.000000000000000E+000  0.000000000000000E+000
  0.000000000000000E+000  0.000000000000000E+000  0.000000000000000E+000
 FOU  0.000000000000000E+000  0.000000000000000E+000  0.000000000000000E+000
  0.000000000000000E+000  0.000000000000000E+000  0.000000000000000E+000
  0.000000000000000E+000  0.000000000000000E+000  0.000000000000000E+000
 FOU  0.000000000000000E+000  0.000000000000000E+000  0.000000000000000E+000
 FOU -3.147432332199628E-005  1.035569708486331E-004 -3.858182417809092E-006
  0.000000000000000E+000  0.000000000000000E+000  0.000000000000000E+000
  0.000000000000000E+000  0.000000000000000E+000  0.000000000000000E+000
 FOU  0.000000000000000E+000  0.000000000000000E+000  0.000000000000000E+000
  0.000000000000000E+000  0.000000000000000E+000  0.000000000000000E+000
  0.000000000000000E+000  0.000000000000000E+000  0.000000000000000E+000
 FOU  9.111768473167410E-005  2.384683169868946E-004 -3.641483922964233E-004
 -2.509381175259574E-004 -9.938665062697064E-003  2.148078844352411E-003
  1.056982563167880E-005 -6.969360218264919E-006 -1.074374869503245E-003
  0.000000000000000E+000  0.000000000000000E+000  0.000000000000000E+000
  0.000000000000000E+000  0.000000000000000E+000  0.000000000000000E+000
  0.000000000000000E+000  0.000000000000000E+000  0.000000000000000E+000
  0.000000000000000E+000  0.000000000000000E+000  0.000000000000000E+000
  1.373192025950321E-004 -9.215898339430290E-005  9.116237012325479E-005
  1.474587030979225E-005 -1.477908663134026E-005 -8.700550431972885E-005

  CP-self-consistency cycle converged.

  End CPSCF iteration #     6                  :  max(cpu_time)    wall_clock(cpu1)
  | Time for this iteration                     :        1.348 s           1.345 s
  | first_order_DM                              :        0.004 s           0.003 s
  | first_order_density                         :        0.136 s           0.133 s
  | first_order_potential                       :        0.260 s           0.258 s
  | first_order_H                               :        0.944 s           0.942 s
  | Solution of Sternheimer eqns.               :        0.004 s           0.003 s
------------------------------------------------------------
dP_dE (Bohr^3) at every cycle:--->
 (10.9320593635826,0.000000000000000E+000) (0.551745798005479,0.000000000000000E+000) (-0.231294012039746,0.000000000000000E+000)
 (0.551625350972187,0.000000000000000E+000) (9.18046122437364,0.000000000000000E+000) (2.843945446001040E-002,0.000000000000000E+000)
 (-0.231276267456007,0.000000000000000E+000) (2.841079504446880E-002,0.000000000000000E+000) (14.2743565228222,0.000000000000000E+000)
DFPT polarizability (Bohr^3)        xx        yy        zz        xy        xz        yz
  | Polarizability:--->                        10.932059364                    9.180461224                   14.274356523                    0.551745798                   -0.231294012                    0.028439454

DFPT for dielectric_constant:--->  # PARSE DFPT_dielectric_tensor
               1.162856549505789             0.008219440992684            -0.003445622043329
               0.008217646674927             1.136762725864234             0.000423666874570
              -0.003445357699569             0.000423239930902             1.212647258161287

                                               :  max(cpu_time)    wall_clock(cpu1)
  | Time for  dielectric calculation            :        0.004 s           0.001 s
===========================================================================

------------------------------------------------------------------------------
  Final output of selected total energy values:

  The following output summarizes some interesting total energy values
  at the end of a run (AFTER all relaxation, molecular dynamics, etc.).

  | Total energy of the DFT / Hartree-Fock s.c.f. calculation      :          -2078.206379394 eV
  | Final zero-broadening corrected energy (caution - metals only) :          -2078.206379394 eV
  | For reference only, the value of 1 Hartree used in FHI-aims is :             27.211384500 eV
  | For reference only, the overall average (free atom contribution
  | + realspace contribution) of the electrostatic potential after
  | s.c.f. convergence is                                          :             -1.105411692 eV

  Before relying on these values, please be sure to understand exactly which
  total energy value is referred to by a given number. Different objects may
  all carry the same name 'total energy'. Definitions:

  Total energy of the DFT / Hartree-Fock s.c.f. calculation:
  | Note that this energy does not include ANY quantities calculated after the
  | s.c.f. cycle, in particular not ANY RPA, MP2, etc. many-body perturbation terms.

  Final zero-broadening corrected energy:
  | For metallic systems only, a broadening of the occupation numbers at the Fermi
  | level can be extrapolated back to zero broadening by an electron-gas inspired
  | formula. For all systems that are not real metals, this value can be
  | meaningless and should be avoided.

------------------------------------------------------------------------------
  Methods described in the following list of references were used in this FHI-aims run.
  If you publish the results, please make sure to cite these reference if they apply.
  FHI-aims is an academic code, and for our developers (often, Ph.D. students
  and postdocs), scientific credit in the community is essential.
  Thank you for helping us!

  For any use of FHI-aims, please cite:

    Volker Blum, Ralf Gehrke, Felix Hanke, Paula Havu, Ville Havu,
    Xinguo Ren, Karsten Reuter, and Matthias Scheffler
    'Ab initio molecular simulations with numeric atom-centered orbitals'
    Computer Physics Communications 180, 2175-2196 (2009)
    http://doi.org/10.1016/j.cpc.2009.06.022


  The provided symmetry information was generated with SPGlib:

    Atsushi Togo, Yusuke Seto, Dimitar Pashov
    SPGlib 1.7.3 obtained from http://spglib.sourceforge.net
    Copyright (C) 2008 Atsushi Togo


  The DFPT (perturbation by an electric field) part of the code was used.
  Here is the corresponding reference:

    Honghui Shang, Nathaniel Raimbault, Mariana Rossi,
    Christian Carbogno, Patrick Rinke and Matthias Scheffler,
    'All-Electron, Real-Space Perturbation Theory for Homogeneous
    Electric Fields: Theory, Implementation, and Application within dft'
    New Journal of Physics, 20(7):073040, 2018


  The ELSI infrastructure was used in your run to solve the Kohn-Sham electronic structure.
  Please check out http://elsi-interchange.org to learn more.
  If scalability is important for your project, please acknowledge ELSI by citing:

    V. W-z. Yu, F. Corsetti, A. Garcia, W. P. Huhn, M. Jacquelin, W. Jia,
    B. Lange, L. Lin, J. Lu, W. Mi, A. Seifitokaldani, A. Vazquez-Mayagoitia,
    C. Yang, H. Yang, and V. Blum
    'ELSI: A unified software interface for Kohn-Sham electronic structure solvers'
    Computer Physics Communications 222, 267-285 (2018).
    http://doi.org/10.1016/j.cpc.2017.09.007


  For the real-space grid partitioning and parallelization used in this calculation, please cite:

    Ville Havu, Volker Blum, Paula Havu, and Matthias Scheffler,
    'Efficient O(N) integration for all-electron electronic structure calculation'
    'using numerically tabulated basis functions'
    Journal of Computational Physics 228, 8367-8379 (2009).
    http://doi.org/10.1016/j.jcp.2009.08.008

  Of course, there are many other important community references, e.g., those cited in the
  above references. Our list is limited to references that describe implementations in the
  FHI-aims code. The reason is purely practical (length of this list) - please credit others as well.

------------------------------------------------------------
          Leaving FHI-aims.
          Date     :  20221003, Time     :  100853.168

          Computational steps:
          | Number of self-consistency cycles          :           33
          | Number of SCF (re)initializations          :            1
          | Number of coupled perturbed self-consistency cycles          :            0
          | Number of CPSCF (re)initializations          :            0

          Detailed time accounting                     :  max(cpu_time)    wall_clock(cpu1)
          | Total time                                  :       34.044 s          34.146 s
          | Preparation time                            :        0.148 s           0.163 s
          | Boundary condition initalization            :        0.052 s           0.049 s
          | Grid partitioning                           :        0.052 s           0.050 s
          | Preloading free-atom quantities on grid     :        0.084 s           0.080 s
          | Free-atom superposition energy              :        0.012 s           0.011 s
          | Total time for integrations                 :        1.280 s           1.260 s
          | Total time for solution of K.-S. equations  :        0.176 s           0.162 s
          | Total time for density update               :        2.068 s           2.046 s
          | Total time for mixing & preconditioning     :        1.112 s           1.086 s
          | Total time for Hartree multipole update     :        0.056 s           0.051 s
          | Total time for Hartree multipole sum        :        2.976 s           2.949 s
          | Total time for total energy evaluation      :        0.084 s           0.043 s
          | Total time first_order_DM                   :        0.080 s           0.062 s
          | Total time first_order_density              :        2.748 s           2.716 s
          | Total time first_order_potential            :        4.616 s           4.582 s
          | Total time first_order_H                    :       17.656 s          17.616 s
          | Total time solving of Sternheimer equations :        0.080 s           0.062 s
          | Total time for dielectric constant          :        0.004 s           0.001 s
          | Total time momentum matrix                  :        0.000 s           0.000 s

          Partial memory accounting:
          | Residual value for overall tracked memory usage across tasks:     0.000000 MB (should be 0.000000 MB)
          | Peak values for overall tracked memory usage:
          |   Minimum:        9.288 MB (on task  5 after allocating DFPT_pulay_mixing::pulay_mix::alphas)
          |   Maximum:        9.293 MB (on task  0 after allocating DFPT_pulay_mixing::pulay_mix::alphas)
          |   Average:        9.289 MB
          | Largest tracked array allocation:
          |   Minimum:        3.332 MB (DFPT_pulay_mixing::initialize_pulay_mixing::X_in_diffs on task  0)
          |   Maximum:        3.332 MB (DFPT_pulay_mixing::initialize_pulay_mixing::X_in_diffs on task  0)
          |   Average:        3.332 MB
          Note:  These values currently only include a subset of arrays which are explicitly tracked.
          The "true" memory usage will be greater.

          Have a nice day.
------------------------------------------------------------
