------------------------------------------------------------
          Invoking FHI-aims ...

          When using FHI-aims, please cite the following reference:

            Volker Blum, Ralf Gehrke, Felix Hanke, Paula Havu,
            Ville Havu, Xinguo Ren, Karsten Reuter, and Matthias Scheffler,
            'Ab Initio Molecular Simulations with Numeric Atom-Centered Orbitals',
            Computer Physics Communications 180, 2175-2196 (2009)

          In addition, many other developments in FHI-aims are likely important for
          your particular application. A partial list of references is given at the end of
          this file. Thank you for giving credit to the authors of these developments.

          For any questions about FHI-aims, please visit our slack channel at

            https://fhi-aims.slack.com

          and our main development and support site at

            https://aims-git.rz-berlin.mpg.de .

          The latter site, in particular, has a wiki to collect information, as well
          as an issue tracker to log discussions, suggest improvements, and report issues
          or bugs. https://aims-git.rz-berlin.mpg.de is also the main development site
          of the project and all new and updated code versions can be obtained there.
          Please send an email to aims-coordinators@fhi-berlin.mpg.de and we will add
          you to these sites. They are for you and everyone is welcome there.

------------------------------------------------------------



  Date     :  20221003, Time     :  094558.797
  Time zero on CPU 1             :   0.520000000000000E-01  s.
  Internal wall clock time zero  :           434022358.797  s.

  FHI-aims created a unique identifier for this run for later identification
  aims_uuid : 001D42D5-55E0-42CB-A27A-62DA72D1B1A6

  Build configuration of the current instance of FHI-aims
  -------------------------------------------------------
  FHI-aims version      : 220810
  Commit number         : eae8be818
  CMake host system     : Linux-4.9.0-16-amd64
  CMake version         : 3.17.3
  Fortran compiler      : /opt/easybuild/software/impi/2017.3.196-iccifort-2017.4.196-GCC-6.4.0-2.28/bin64/mpiifort (Intel) version 17.0.4.20170411
  Fortran compiler flags: -O3 -ip -fp-model precise
  C compiler            : /opt/easybuild/software/icc/2017.4.196-GCC-6.4.0-2.28/compilers_and_libraries_2017.4.196/linux/bin/intel64/icc (Intel) version 17.0.4.20170411
  C compiler flags      : -O3 -ip -fp-model precise -std=gnu99
  Using MPI
  Using ScaLAPACK
  Using LibXC
  Using i-PI
  Using RLSY
  Linking against: /opt/easybuild/software/imkl/2017.3.196-iimpi-2017b/mkl/lib/intel64/libmkl_intel_lp64.so
                   /opt/easybuild/software/imkl/2017.3.196-iimpi-2017b/mkl/lib/intel64/libmkl_sequential.so
                   /opt/easybuild/software/imkl/2017.3.196-iimpi-2017b/mkl/lib/intel64/libmkl_core.so
                   /opt/easybuild/software/imkl/2017.3.196-iimpi-2017b/mkl/lib/intel64/libmkl_blacs_intelmpi_lp64.so
                   /opt/easybuild/software/imkl/2017.3.196-iimpi-2017b/mkl/lib/intel64/libmkl_scalapack_lp64.so

  Using       16 parallel tasks.
  Task        0 on host mpsd-hpc-ibm-056 reporting.
  Task        1 on host mpsd-hpc-ibm-056 reporting.
  Task        2 on host mpsd-hpc-ibm-056 reporting.
  Task        3 on host mpsd-hpc-ibm-056 reporting.
  Task        4 on host mpsd-hpc-ibm-057 reporting.
  Task        5 on host mpsd-hpc-ibm-057 reporting.
  Task        6 on host mpsd-hpc-ibm-057 reporting.
  Task        7 on host mpsd-hpc-ibm-057 reporting.
  Task        8 on host mpsd-hpc-ibm-058 reporting.
  Task        9 on host mpsd-hpc-ibm-058 reporting.
  Task       10 on host mpsd-hpc-ibm-058 reporting.
  Task       11 on host mpsd-hpc-ibm-058 reporting.
  Task       12 on host mpsd-hpc-ibm-059 reporting.
  Task       13 on host mpsd-hpc-ibm-059 reporting.
  Task       14 on host mpsd-hpc-ibm-059 reporting.
  Task       15 on host mpsd-hpc-ibm-059 reporting.

  Performing system and environment tests:
  | Environment variable OMP_NUM_THREADS correctly set to 1.
  | Checking for ScaLAPACK...
  | Testing pdtran()...
  | All pdtran() tests passed.

  Obtaining array dimensions for all initial allocations:
  
  -----------------------------------------------------------------------
  Parsing control.in (first pass over file, find array dimensions only).
  The contents of control.in will be repeated verbatim below
  unless switched off by setting 'verbatim_writeout .false.' .
  in the first line of control.in .
  -----------------------------------------------------------------------
  
  #########################################################################################
  #
  #  Volker Blum, 2017 : Test run input file control.in for simple H2O
  #
  #########################################################################################
  #
  #  Physical model
  #
    xc                 pbe
    spin               none
    relativistic       none
    charge             0.
  
  #  ri_density_restart         write
  #  ri_rho1 write
  #  ri_full_output .True.
  #  ri_output_density_only .True.
    DFPT dielectric
    sc_accuracy_rho    1d-6
  #  use_calculate_fock_matrix_old .false.
  #  output cube total_density
    k_grid 1 1 1
    wave_threshold 1e-8
  
  # prodbas_threshold 1e-2
  #
  #  Relaxation
  #
  #  relax_geometry   bfgs 1.e-2
  #
  
  ################################################################################
  
  ################################################################################
  #
  #  FHI-aims code project
  #  VB, Fritz-Haber Institut, 2009
  #
  #  Suggested "light" defaults for O atom (to be pasted into control.in file)
  #  Be sure to double-check any results obtained with these settings for post-processing,
  #  e.g., with the "tight" defaults and larger basis sets.
  #
  ################################################################################
    species        O
  #     global species definitions
      nucleus             8
      mass                15.9994
  #
      l_hartree           6
  #
      cut_pot             4.0  2.0  1.0
      basis_dep_cutoff    1e-4
  #
      radial_base         36 7.0
      radial_multiplier   2
       angular_grids specified
        division   0.2659   50
        division   0.4451  110
        division   0.6052  194
        division   0.7543  302
        division   0.8014  434
  #      division   0.8507  590
  #      division   0.8762  770
  #      division   0.9023  974
  #      division   1.2339 1202
  #      outer_grid 974
        outer_grid 434
  ################################################################################
  #
  #  Definition of "minimal" basis
  #
  ################################################################################
  #     valence basis states
      valence      2  s   2.
      valence      2  p   4.
  #     ion occupancy
      ion_occ      2  s   1.
      ion_occ      2  p   3.
  ################################################################################
  #
  #  Suggested additional basis functions. For production calculations,
  #  uncomment them one after another (the most important basis functions are
  #  listed first).
  #
  #
  ################################################################################
  #  "First tier" - improvements: -699.05 meV to -159.38 meV
       hydro 2 p 1.8
       hydro 3 d 7.6
       hydro 3 s 6.4
  #  "Second tier" - improvements: -49.91 meV to -5.39 meV
       hydro 4 f 11.6
       hydro 3 p 6.2
       hydro 3 d 5.6
       hydro 5 g 17.6
       hydro 1 s 0.75
  #  "Third tier" - improvements: -2.83 meV to -0.50 meV
  #     ionic 2 p auto
  #     hydro 4 f 10.8
  #     hydro 4 d 4.7
  #     hydro 2 s 6.8
  #  "Fourth tier" - improvements: -0.40 meV to -0.12 meV
  #     hydro 3 p 5
  #     hydro 3 s 3.3
  #     hydro 5 g 15.6
  #     hydro 4 f 17.6
  #     hydro 4 d 14
  # Further basis functions - -0.08 meV and below
  #     hydro 3 s 2.1
  #     hydro 4 d 11.6
  #     hydro 3 p 16
  #     hydro 2 s 17.2
  ################################################################################
  #
  #  FHI-aims code project
  #  VB, Fritz-Haber Institut, 2009
  #
  #  Suggested "light" defaults for H atom (to be pasted into control.in file)
  #  Be sure to double-check any results obtained with these settings for post-processing,
  #  e.g., with the "tight" defaults and larger basis sets.
  #
  ################################################################################
    species        H
  #     global species definitions
      nucleus             1
      mass                1.00794
  #
      l_hartree           6
  #
      cut_pot             4.0  2.0  1.0
      basis_dep_cutoff    1e-4
  #
      radial_base         24 7.0
      radial_multiplier   2
      angular_grids       specified
        division   0.2421   50
        division   0.3822  110
        division   0.4799  194
        division   0.5341  302
        division   0.5626  434
  #      division   0.5922  590
  #      division   0.6542  770
  #      division   0.6868 1202
  #      outer_grid  770
        outer_grid  434
  ################################################################################
  #
  #  Definition of "minimal" basis
  #
  ################################################################################
  #     valence basis states
      valence      1  s   1.
  #     ion occupancy
      ion_occ      1  s   0.5
  ################################################################################
  #
  #  Suggested additional basis functions. For production calculations,
  #  uncomment them one after another (the most important basis functions are
  #  listed first).
  #
  #  Basis constructed for dimers: 0.5 A, 0.7 A, 1.0 A, 1.5 A, 2.5 A
  #
  ################################################################################
  #  "First tier" - improvements: -1014.90 meV to -62.69 meV
       hydro 2 s 2.1
       hydro 2 p 3.5
  #  "Second tier" - improvements: -12.89 meV to -1.83 meV
      hydro 1 s 0.85
      hydro 2 p 3.7
      hydro 2 s 1.2
      hydro 3 d 7
  #  "Third tier" - improvements: -0.25 meV to -0.12 meV
  #    hydro 4 f 11.2
  #    hydro 3 p 4.8
  #    hydro 4 d 9
  #    hydro 3 s 3.2
  #
  
  
  -----------------------------------------------------------------------
  Completed first pass over input file control.in .
  -----------------------------------------------------------------------
  
  
  -----------------------------------------------------------------------
  Parsing geometry.in (first pass over file, find array dimensions only).
  The contents of geometry.in will be repeated verbatim below
  unless switched off by setting 'verbatim_writeout .false.' .
  in the first line of geometry.in .
  -----------------------------------------------------------------------
  
  #=======================================================
  # FHI-aims file: qmdata/data/geoms/154.in
  # Created using the Atomic Simulation Environment (ASE)
  # Wed Sep 21 12:30:23 2022
  #=======================================================
  lattice_vector 5.0000000000000000 0.0000000000000000 0.0000000000000000
  lattice_vector 0.0000000000000000 5.0000000000000000 0.0000000000000000
  lattice_vector 0.0000000000000000 0.0000000000000000 5.0000000000000000
  atom 0.0566259700000000 0.0033858600000000 0.0031591000000000 O
  atom -0.4679154500000000 -0.6876117899999999 -0.0261044700000000 H
  atom -0.4308533300000000 0.6338713700000000 -0.0240368100000000 H
  
  -----------------------------------------------------------------------
  Completed first pass over input file geometry.in .
  -----------------------------------------------------------------------
  

  Basic array size parameters:
  | Number of species                 :        2
  | Number of atoms                   :        3
  | Number of lattice vectors         :        3
  | Max. basis fn. angular momentum   :        4
  | Max. atomic/ionic basis occupied n:        2
  | Max. number of basis fn. types    :        2
  | Max. radial fns per species/type  :        8
  | Max. logarithmic grid size        :     1301
  | Max. radial integration grid size :       73
  | Max. angular integration grid size:      434
  | Max. angular grid division number :        8
  | Radial grid for Hartree potential :     1301
  | Number of spin channels           :        1

------------------------------------------------------------
          Reading file control.in.
------------------------------------------------------------
  XC: Using PBE gradient-corrected functionals.
  Spin treatment: No spin polarisation.
  Non-relativistic treatment of kinetic energy.
  Charge =   0.000000E+00: Neutral system requested explicitly.
  DFPT calculation will begin after the DFT/HF calculation.
  Convergence accuracy of self-consistent charge density:  0.1000E-05
  Found k-point grid:         1         1         1
  Threshold value for wave function integration:  0.1000E-07
 
  Reading configuration options for species O                   .
  | Found nuclear charge :   8.0000
  | Found atomic mass :    15.9994000000000      amu
  | Found l_max for Hartree potential  :   6
  | Found cutoff potl. onset [A], width [A], scale factor :    4.00000    2.00000    1.00000
  | Threshold for basis-dependent cutoff potential is   0.100000E-03
  | Found data for basic radial integration grid :    36 points, outermost radius =    7.000 A
  | Found multiplier for basic radial grid :   2
  | Found angular grid specification: user-specified.
  | Specified grid contains     6 separate shells.
  | Check grid settings after all constraints further below.
  | Found free-atom valence shell :  2 s   2.000
  | Found free-atom valence shell :  2 p   4.000
  | No ionic wave fns used. Skipping ion_occ.
  | No ionic wave fns used. Skipping ion_occ.
  | Found hydrogenic basis function :  2 p   1.800
  | Found hydrogenic basis function :  3 d   7.600
  | Found hydrogenic basis function :  3 s   6.400
  | Found hydrogenic basis function :  4 f  11.600
  | Found hydrogenic basis function :  3 p   6.200
  | Found hydrogenic basis function :  3 d   5.600
  | Found hydrogenic basis function :  5 g  17.600
  | Found hydrogenic basis function :  1 s   0.750
  Species O                   : Missing cutoff potential type.
  Defaulting to exp(1/x)/(1-x)^2 type cutoff potential.
  Species O : No 'logarithmic' tag. Using default grid for free atom:
  | Default logarithmic grid data [bohr] : 0.1000E-03 0.1000E+03 0.1012E+01
  Species O : On-site basis accuracy parameter (for Gram-Schmidt orthonormalisation) not specified.
  Using default value basis_acc =  0.1000000E-03.
  Species O                   : Using default innermost maximum threshold i_radial=  2 for radial functions.
  Species O                   : Default cutoff onset for free atom density etc. : 0.40000000E+01 AA.
  Species O                   : Basic radial grid will be enhanced according to radial_multiplier =   2, to contain    73 grid points.
 
  Reading configuration options for species H                   .
  | Found nuclear charge :   1.0000
  | Found atomic mass :    1.00794000000000      amu
  | Found l_max for Hartree potential  :   6
  | Found cutoff potl. onset [A], width [A], scale factor :    4.00000    2.00000    1.00000
  | Threshold for basis-dependent cutoff potential is   0.100000E-03
  | Found data for basic radial integration grid :    24 points, outermost radius =    7.000 A
  | Found multiplier for basic radial grid :   2
  | Found angular grid specification: user-specified.
  | Specified grid contains     6 separate shells.
  | Check grid settings after all constraints further below.
  | Found free-atom valence shell :  1 s   1.000
  | No ionic wave fns used. Skipping ion_occ.
  | Found hydrogenic basis function :  2 s   2.100
  | Found hydrogenic basis function :  2 p   3.500
  | Found hydrogenic basis function :  1 s   0.850
  | Found hydrogenic basis function :  2 p   3.700
  | Found hydrogenic basis function :  2 s   1.200
  | Found hydrogenic basis function :  3 d   7.000
  Species H                   : Missing cutoff potential type.
  Defaulting to exp(1/x)/(1-x)^2 type cutoff potential.
  Species H : No 'logarithmic' tag. Using default grid for free atom:
  | Default logarithmic grid data [bohr] : 0.1000E-03 0.1000E+03 0.1012E+01
  Species H : On-site basis accuracy parameter (for Gram-Schmidt orthonormalisation) not specified.
  Using default value basis_acc =  0.1000000E-03.
  Species H                   : Using default innermost maximum threshold i_radial=  2 for radial functions.
  Species H                   : Default cutoff onset for free atom density etc. : 0.40000000E+01 AA.
  Species H                   : Basic radial grid will be enhanced according to radial_multiplier =   2, to contain    49 grid points.
 
  Finished reading input file 'control.in'.
 
------------------------------------------------------------


------------------------------------------------------------
          Reading geometry description geometry.in.
------------------------------------------------------------
  | The smallest distance between any two atoms is         0.79742565 AA.
  | The first atom of this pair is atom number                      1 .
  | The second atom of this pair is atom number                     3 .
  | Wigner-Seitz cell of the first atom image           0     0     0 .
  | (The Wigner-Seitz cell of the second atom is 0 0 0  by definition.)

  Symmetry information by spglib:
  | Precision set to  0.1E-04
  | Number of Operations  : 1
  | Space group           : 1
  | International         : P1        q
  | Schoenflies           : C1^1
  Input structure read successfully.
  The structure contains        3 atoms,  and a total of         10.000 electrons.

  Input geometry:
  | Unit cell:
  |        5.00000000        0.00000000        0.00000000
  |        0.00000000        5.00000000        0.00000000
  |        0.00000000        0.00000000        5.00000000
  | Atomic structure:
  |       Atom                x [A]            y [A]            z [A]
  |    1: Species O             0.05662597        0.00338586        0.00315910
  |    2: Species H            -0.46791545       -0.68761179       -0.02610447
  |    3: Species H            -0.43085333        0.63387137       -0.02403681

  Lattice parameters for 3D lattice (in Angstroms) :     5.000000    5.000000    5.000000
  Angle(s) between unit vectors (in degrees)       :    90.000000   90.000000   90.000000


  Quantities derived from the lattice vectors (in Angstrom^-1):
  | Reciprocal lattice vector 1:  1.256637  0.000000  0.000000
  | Reciprocal lattice vector 2:  0.000000  1.256637  0.000000
  | Reciprocal lattice vector 3:  0.000000  0.000000  1.256637
  | Unit cell volume                               :   0.125000E+03  Angstrom^3

  Fractional coordinates:
                         L1                L2                L3
       atom_frac         0.01132519        0.00067717        0.00063182  O
       atom_frac        -0.09358309       -0.13752236       -0.00522089  H
       atom_frac        -0.08617067        0.12677427       -0.00480736  H

 
  Finished reading input file 'geometry.in'.
 

 
  Consistency checks for stacksize environment parameter are next.
 
  | Maximum stacksize for task 0: unlimited
  | Maximum stacksize for task 1: unlimited
  | Maximum stacksize for task 2: unlimited
  | Maximum stacksize for task 3: unlimited
  | Maximum stacksize for task 4: unlimited
  | Maximum stacksize for task 5: unlimited
  | Maximum stacksize for task 6: unlimited
  | Maximum stacksize for task 7: unlimited
  | Maximum stacksize for task 8: unlimited
  | Maximum stacksize for task 9: unlimited
  | Maximum stacksize for task 10: unlimited
  | Maximum stacksize for task 11: unlimited
  | Maximum stacksize for task 12: unlimited
  | Maximum stacksize for task 13: unlimited
  | Maximum stacksize for task 14: unlimited
  | Maximum stacksize for task 15: unlimited
  | Current stacksize for task 0: unlimited
  | Current stacksize for task 1: unlimited
  | Current stacksize for task 2: unlimited
  | Current stacksize for task 3: unlimited
  | Current stacksize for task 4: unlimited
  | Current stacksize for task 5: unlimited
  | Current stacksize for task 6: unlimited
  | Current stacksize for task 7: unlimited
  | Current stacksize for task 8: unlimited
  | Current stacksize for task 9: unlimited
  | Current stacksize for task 10: unlimited
  | Current stacksize for task 11: unlimited
  | Current stacksize for task 12: unlimited
  | Current stacksize for task 13: unlimited
  | Current stacksize for task 14: unlimited
  | Current stacksize for task 15: unlimited
 
  Consistency checks for the contents of control.in are next.
 
  MPI_IN_PLACE appears to work with this MPI implementation.
  | Keeping use_mpi_in_place .true. (see manual).
  Target number of points in a grid batch is not set. Defaulting to  100
  Method for grid partitioning is not set. Defaulting to parallel hash+maxmin partitioning.
  Batch size limit is not set. Defaulting to    200
  By default, will store active basis functions for each batch.
  If in need of memory, prune_basis_once .false. can be used to disable this option.
  communication_type for Hartree potential was not specified.
  Defaulting to calc_hartree .
  Defaulting to Pulay charge density mixer.
  Pulay mixer: Number of relevant iterations not set.
  Defaulting to    8 iterations.
  Pulay mixer: Number of initial linear mixing iterations not set.
  Defaulting to    0 iterations.
  Work space size for distributed Hartree potential not set.
  Defaulting to   0.200000E+03 MB.
  Mixing parameter for charge density mixing has not been set.
  Using default: charge_mix_param =     0.0500.
  The mixing parameter will be adjusted in iteration number     2 of the first full s.c.f. cycle only.
  Algorithm-dependent basis array size parameters:
  | n_max_pulay                         :        8
  Maximum number of self-consistency iterations not provided.
  Presetting  1000 iterations.
  Presetting      1001 iterations before the initial mixing cycle
  is restarted anyway using the sc_init_iter criterion / keyword.
  Presetting a factor      1.000 between actual scf density residual
  and density convergence criterion sc_accuracy_rho below which sc_init_iter
  takes no effect.
  Calculation of forces was not defined in control.in. No forces will be calculated.
  Geometry relaxation not requested: no relaxation will be performed.
  No accuracy limit for integral partition fn. given. Defaulting to  0.1000E-14.
  No occupation type (smearing scheme) given. Defaulting to Gaussian broadening, width =  0.1000E-01 eV.
  The width will be adjusted in iteration number     2 of the first full s.c.f. cycle only.
  S.C.F. convergence parameters will be adjusted in iteration number     2 of the first full s.c.f. cycle only.
  No accuracy for occupation numbers given. Defaulting to  0.1000E-12.
  No threshold value for occupation numbers given. Defaulting to  0.0000E+00.
  No accuracy for fermi level given. Defaulting to  0.1000E-19.
  Maximum # of iterations to find E_F not set. Defaulting to  200.
  Preferred method for the eigenvalue solver ('KS_method') not specified in 'control.in'.
  Calling BLACS routine to test compilation state
  Since ScaLAPACK support is enabled, defaulting to ELPA (via ELSI).
  Will not use alltoall communication since running on < 1024 CPUs.
  Threshold for basis singularities not set.
  Default threshold for basis singularities:  0.1000E-04
  partition_type (choice of integration weights) for integrals was not specified.
  | Using a version of the partition function of Stratmann and coworkers ('stratmann_sparse').
  | At each grid point, the set of atoms used to build the partition table is smoothly restricted to
  | only those atoms whose free-atom density would be non-zero at that grid point.
  Partitioning for Hartree potential was not defined. Using partition_type for integrals.
  | Adjusted default value of keyword multip_moments_threshold to:       0.10000000E-11
  | This value may affect high angular momentum components of the Hartree potential in periodic systems.
  Angular momentum expansion for Kerker preconditioner not set explicitly.
  | Using default value of   0
  No explicit requirement for turning off preconditioner.
  | By default, it will be turned off when the charge convergence reaches
  | sc_accuracy_rho  =   0.100000E-05
  No special mixing parameter while Kerker preconditioner is on.
  Using default: charge_mix_param =     0.0500.
  No q(lm)/r^(l+1) cutoff set for long-range Hartree potential.
  | Using default value of  0.100000E-09 .
  | Verify using the multipole_threshold keyword.
  Defaulting to new monopole extrapolation.
  Density update method: automatic selection selected.
  Using density matrix based charge density update.
  Using density matrix based charge density update.
  Using packed matrix style: index .
  Defaulting to use time-reversal symmetry for k-point grid.
  Charge integration errors on the 3D integration grid will be compensated
  by explicit normalization and distribution of residual charges.
  Use the "compensate_multipole_errors" flag to change this behaviour.
 
  Consistency checks for the contents of geometry.in are next.
 

  Range separation radius for Ewald summation (hartree_convergence_parameter):      5.00000000 bohr.
  Number of empty states per atom not set in control.in .
  | Since you are using a method that relies on the unoccupied spectrum
  | (MP2,GW,RPA et al.), will use the full Hamiltonian size (see below)
  | as the max. possible number of states (occupied plus empty).

  Structure-dependent array size parameters: 
  | Maximum number of distinct radial functions  :       18
  | Maximum number of basis functions            :       69
  | Number of Kohn-Sham states (occupied + empty):       69
------------------------------------------------------------

------------------------------------------------------------
          Preparing all fixed parts of the calculation.
------------------------------------------------------------
  Determining machine precision:
    2.225073858507201E-308
  Setting up grids for atomic and cluster calculations.

  Creating wave function, potential, and density for free atoms.
  Runtime choices for atomic solver:
  | atomic solver xc        : PBE
  | compute density gradient: 1
  | compute kinetic density : F

  Species: O

  List of occupied orbitals and eigenvalues:
    n    l              occ      energy [Ha]    energy [eV]
    1    0           2.0000       -18.898576      -514.2564
    2    0           2.0000        -0.878795       -23.9132
    2    1           4.0000        -0.332075        -9.0362


  Species: H

  List of occupied orbitals and eigenvalues:
    n    l              occ      energy [Ha]    energy [eV]
    1    0           1.0000        -0.238382        -6.4867


  Adding cutoff potential to free-atom effective potential.
  Creating fixed part of basis set: Ionic, confined, hydrogenic.
 
  O                    hydrogenic:
 
  List of hydrogenic basis orbitals: 
    n    l      effective z      eigenvalue [eV]  inner max. [A]     outer max. [A]     outer radius [A]   
    2    1         1.800000       -11.0118           1.178562           1.178562           5.567066
    3    2         7.600000       -87.3182           0.624125           0.624125           3.764702
    3    0         6.400000       -61.9209           0.061167           1.081902           4.522403
    4    3        11.600000      -114.4238           0.731631           0.731631           3.811008
    3    1         6.200000       -58.1113           0.255680           1.030270           4.522403
    3    2         5.600000       -47.4081           0.847233           0.847233           4.578029
    5    4        17.600000      -168.5799           0.749740           0.749740           3.629133
    1    0         0.750000        -7.6499           0.705284           0.705284           5.567066
 
 
  H                    hydrogenic:
 
  List of hydrogenic basis orbitals: 
    n    l      effective z      eigenvalue [eV]  inner max. [A]     outer max. [A]     outer radius [A]   
    2    0         2.100000       -14.9965           0.193243           1.317208           5.573719
    2    1         3.500000       -41.6672           0.602369           0.602369           4.259334
    1    0         0.850000        -9.8292           0.624871           0.624871           5.573719
    2    1         3.700000       -46.5653           0.573622           0.573622           4.105953
    2    0         1.200000        -4.5995           0.334980           2.228188           5.642276
    3    2         7.000000       -74.0753           0.680699           0.680699           3.958095
 
  Creating atomic-like basis functions for current effective potential.

  Species O                   :

  List of atomic basis orbitals and eigenvalues:
    n    l      energy [Ha]    energy [eV]    outer radius [A]
    1    0       -18.898576      -514.2564       1.807907
    2    0        -0.878795       -23.9132       5.366593
    2    1        -0.332075        -9.0362       5.499423


  Species H                   :

  List of atomic basis orbitals and eigenvalues:
    n    l      energy [Ha]    energy [eV]    outer radius [A]
    1    0        -0.238382        -6.4867       5.573719

  Assembling full basis from fixed parts.
  | Species O :   atomic orbital   1 s accepted.
  | Species O :    hydro orbital   3 s accepted.
  | Species O :   atomic orbital   2 s accepted.
  | Species O :    hydro orbital   1 s accepted.
  | Species O :    hydro orbital   3 p accepted.
  | Species O :   atomic orbital   2 p accepted.
  | Species O :    hydro orbital   2 p accepted.
  | Species O :    hydro orbital   3 d accepted.
  | Species O :    hydro orbital   3 d accepted.
  | Species O :    hydro orbital   4 f accepted.
  | Species O :    hydro orbital   5 g accepted.
  | Species H :   atomic orbital   1 s accepted.
  | Species H :    hydro orbital   2 s accepted.
  | Species H :    hydro orbital   1 s accepted.
  | Species H :    hydro orbital   2 s accepted.
  | Species H :    hydro orbital   2 p accepted.
  | Species H :    hydro orbital   2 p accepted.
  | Species H :    hydro orbital   3 d accepted.
 
  Basis size parameters after reduction:
  | Total number of radial functions:       18
  | Total number of basis functions :       69
 
  Per-task memory consumption for arrays in subroutine allocate_ext:
  |           4.499020MB.
  Testing on-site integration grid accuracy.
  |  Species  Function  <phi|h_atom|phi> (log., in eV)  <phi|h_atom|phi> (rad., in eV)
           1        1               -514.2564144315               -514.2564099626
           1        2                 15.1726678541                 15.1726530877
           1        3                -21.5447785304                -21.5447874973
           1        4                 14.4944558459                 14.4944698284
           1        5                 20.8882174564                 20.8882178906
           1        6                 -2.4850315909                 -2.4850322289
           1        7                 13.8600193195                 13.8599826966
           1        8                 45.8243383616                 45.8243383675
           1        9                 52.1840606465                 52.1840622440
           1       10                 85.4074185510                 85.4074185819
           1       11                142.0983717302                142.0983717339
           2       12                 -6.4869821809                 -6.4870742227
           2       13                 13.5044133542                 13.5041049177
           2       14                 32.7854418792                 32.7779770519
           2       15                 33.7995553101                 33.7152624900 ***
           2       16                 28.8558651799                 28.8558652046
           2       17                 59.6361831893                 59.6362535845
           2       18                 60.2733718049                 60.2733715484
 * Note: Onsite integrals marked "***" above are less accurate than
 * onsite_accuracy_threshold =    0.03000 eV. Usually, this is harmless.
 * When in doubt, tighten the "radial" and/or "radial_multiplier" flags to check.

  Preparing densities etc. for the partition functions (integrals / Hartree potential).

  Preparations completed.
  max(cpu_time)          :      0.132 s.
  Wall clock time (cpu1) :      0.167 s.
------------------------------------------------------------

  Initializing index lists of integration centers etc. from given atomic structure:
  Mapping all atomic coordinates to central unit cell.

  Initializing the k-points
  Using symmetry for reducing the k-points
  | k-points reduced from:        1 to        1
  | Number of k-points                             :         1
  | Consuming          0 KiB for k_phase_exx.
  The eigenvectors in the calculations are REAL.
  | Number of basis functions in the Hamiltonian integrals :      1573
  | Number of basis functions in a single unit cell        :        69
  | Number of centers in hartree potential         :       649
  | Number of centers in hartree multipole         :       243
  | Number of centers in electron density summation:       186
  | Number of centers in basis integrals           :       207
  | Number of centers in integrals                 :        81
  | Number of centers in hamiltonian               :       187
  | Consuming          1 KiB for k_phase.
  | Number of super-cells (origin) [n_cells]                     :        1331
  | Number of super-cells (after PM_index) [n_cells]             :          70
  | Number of super-cells in hamiltonian [n_cells_in_hamiltonian]:          70
  | Size of matrix packed + index [n_hamiltonian_matrix_size] :       62120
  | Size of matrix packed + index (no_symmetry):      122242

------------------------------------------------------------
          Begin self-consistency loop: Initialization.

          Date     :  20221003, Time     :  094559.098
------------------------------------------------------------
  | Estimated reciprocal-space cutoff momentum G_max:         1.90186217 bohr^-1 .
  | Reciprocal lattice points for long-range Hartree potential:      92
  Using simple linear distribution as default method for k-point parallelism.
  * Using 16 tasks for Scalapack Eigenvalue solver.
  Detailed listing of tasks and assigned k-points:
   Task     0 k-point     1 on mpsd-hpc-ibm-056
   Task     1 k-point     1 on mpsd-hpc-ibm-056
   Task     2 k-point     1 on mpsd-hpc-ibm-056
   Task     3 k-point     1 on mpsd-hpc-ibm-056
   Task     4 k-point     1 on mpsd-hpc-ibm-057
   Task     5 k-point     1 on mpsd-hpc-ibm-057
   Task     6 k-point     1 on mpsd-hpc-ibm-057
   Task     7 k-point     1 on mpsd-hpc-ibm-057
   Task     8 k-point     1 on mpsd-hpc-ibm-058
   Task     9 k-point     1 on mpsd-hpc-ibm-058
   Task    10 k-point     1 on mpsd-hpc-ibm-058
   Task    11 k-point     1 on mpsd-hpc-ibm-058
   Task    12 k-point     1 on mpsd-hpc-ibm-059
   Task    13 k-point     1 on mpsd-hpc-ibm-059
   Task    14 k-point     1 on mpsd-hpc-ibm-059
   Task    15 k-point     1 on mpsd-hpc-ibm-059
  K-point:     1 Tasks:    16 split into      4 X      4 BLACS grid
  Calculating block size based on n_basis =           69  max_nprow =            4  max_npcol =            4
  ScaLAPACK block size set to:           16
  Allocating        0.003 MB for ovlp
  Allocating        0.003 MB for ham
  Allocating        0.003 MB for eigenvec
  Required Scalapack workspace - INTEGER:            1  REAL:             1
  Partitioning the integration grid into batches with parallel hashing+maxmin method.
  | Number of batches:      488
  | Maximal batch size:     168
  | Minimal batch size:      50
  | Average batch size:      96.086
  | Standard deviation of batch sizes:      25.840

  Integration load balanced across    16 MPI tasks.
  Work distribution over tasks is as follows:
  Task     0 has       2954 integration points.
  Task     1 has       2993 integration points.
  Task     2 has       2941 integration points.
  Task     3 has       2936 integration points.
  Task     4 has       2977 integration points.
  Task     5 has       2908 integration points.
  Task     6 has       2919 integration points.
  Task     7 has       2913 integration points.
  Task     8 has       2902 integration points.
  Task     9 has       2915 integration points.
  Task    10 has       2949 integration points.
  Task    11 has       2908 integration points.
  Task    12 has       2957 integration points.
  Task    13 has       2911 integration points.
  Task    14 has       2901 integration points.
  Task    15 has       2906 integration points.
  Initializing partition tables, free-atom densities, potentials, etc. across the integration grid (initialize_grid_storage).
  | initialize_grid_storage: Actual outermost partition radius vs. multipole_radius_free
  | (-- VB: in principle, multipole_radius_free should be larger, hence this output)
  | Species        1: Confinement radius =              6.000000000000000 AA, multipole_radius_free =              6.064445521808699 AA.
  | Species        1: outer_partition_radius set to              6.064445521808699 AA .
  | Species        2: Confinement radius =              6.000000000000000 AA, multipole_radius_free =              6.071692442739658 AA.
  | Species        2: outer_partition_radius set to              6.071692442739658 AA .
  | The sparse table of interatomic distances needs        415.41 kbyte instead of       342.79 kbyte of memory.
  | Using the partition_type stratmann_smoother will reduce your memory usage.
  | Net number of integration points:    46890
  | of which are non-zero points    :    37030
  | Numerical average free-atom electrostatic potential    :     -1.29049421 eV
  Renormalizing the initial density to the exact electron count on the 3D integration grid.
  | Initial density: Formal number of electrons (from input files) :      10.0000000000
  | Integrated number of electrons on 3D grid     :      10.0000047113
  | Charge integration error                      :       0.0000047113
  | Normalization factor for density and gradient :       0.9999995289
  Renormalizing the free-atom superposition density to the exact electron count on the 3D integration grid.
  | Formal number of electrons (from input files) :      10.0000000000
  | Integrated number of electrons on 3D grid     :      10.0000047113
  | Charge integration error                      :       0.0000047113
  | Normalization factor for density and gradient :       0.9999995289
  Obtaining max. number of non-zero basis functions in each batch (get_n_compute_maxes).
  | Maximal number of non-zero basis functions:      378 in task     0
  | Maximal number of non-zero basis functions:      422 in task     1
  | Maximal number of non-zero basis functions:      390 in task     2
  | Maximal number of non-zero basis functions:      346 in task     3
  | Maximal number of non-zero basis functions:      379 in task     4
  | Maximal number of non-zero basis functions:      378 in task     5
  | Maximal number of non-zero basis functions:      405 in task     6
  | Maximal number of non-zero basis functions:      358 in task     7
  | Maximal number of non-zero basis functions:      375 in task     8
  | Maximal number of non-zero basis functions:      414 in task     9
  | Maximal number of non-zero basis functions:      395 in task    10
  | Maximal number of non-zero basis functions:      368 in task    11
  | Maximal number of non-zero basis functions:      425 in task    12
  | Maximal number of non-zero basis functions:      381 in task    13
  | Maximal number of non-zero basis functions:      345 in task    14
  | Maximal number of non-zero basis functions:      425 in task    15
  Integrating Hamiltonian matrix: batch-based integration.
  Time summed over all CPUs for integration: real work        1.079 s, elapsed        1.144 s
  Integrating overlap matrix.
  Time summed over all CPUs for integration: real work        0.604 s, elapsed        0.638 s
  Deallocating overlap matrix.

  Updating Kohn-Sham eigenvalues and eigenvectors using ELSI and the ELPA eigensolver.
  Singularity check in k-point 1 (analysis for other k-points may follow below):
  Overlap matrix is not singular
  | Lowest and highest eigenvalues :  0.1523E-03,  0.6964E+01
  Finished singularity check of overlap matrix
  | Time :     0.003 s
  Starting ELPA eigensolver
  Finished Cholesky decomposition
  | Time :     0.003 s
  Finished transformation to standard eigenproblem
  | Time :     0.001 s
  Finished solving standard eigenproblem
  | Time :     0.003 s
  Finished back-transformation of eigenvectors
  | Time :     0.000 s

  Obtaining occupation numbers and electronic chemical potential using ELSI.
  | Note that, for insulating systems, the printed 'chemical potential' value is not uniquely defined.
  | It can be anywhere in the energy gap, as long as it correctly separates occupied and unoccupied states.
  | In systems with a gap, the physically relevant chemical potential is the VBM or HOMO.

  | Chemical potential (Fermi level):    -5.18212086 eV
  Writing Kohn-Sham eigenvalues.

  State    Occupation    Eigenvalue [Ha]    Eigenvalue [eV]
      1       2.00000         -19.079099         -519.16870
      2       2.00000          -1.216711          -33.10838
      3       2.00000          -0.738023          -20.08262
      4       2.00000          -0.561697          -15.28456
      5       2.00000          -0.490392          -13.34426
      6       0.00000          -0.103002           -2.80283
      7       0.00000           0.090296            2.45709
      8       0.00000           0.118063            3.21266
      9       0.00000           0.182537            4.96708
     10       0.00000           0.206346            5.61496
     11       0.00000           0.216067            5.87949
     12       0.00000           0.343943            9.35917
     13       0.00000           0.431160           11.73245
     14       0.00000           0.457220           12.44158
     15       0.00000           0.464422           12.63757
     16       0.00000           0.526581           14.32899
     17       0.00000           0.624378           16.99020
     18       0.00000           0.694757           18.90529
     19       0.00000           0.908540           24.72263
     20       0.00000           1.035975           28.19030
     21       0.00000           1.054825           28.70326
     22       0.00000           1.084002           29.49721
     23       0.00000           1.092880           29.73877
     24       0.00000           1.143038           31.10364
     25       0.00000           1.426593           38.81956
     26       0.00000           1.450887           39.48063
     27       0.00000           1.508333           41.04384
     28       0.00000           1.791331           48.74461
     29       0.00000           2.134444           58.08116
     30       0.00000           2.154414           58.62459
     31       0.00000           2.195631           59.74615
     32       0.00000           2.253146           61.31122
     33       0.00000           2.374168           64.60439
     34       0.00000           2.419680           65.84284
     35       0.00000           2.579264           70.18534
     36       0.00000           2.820410           76.74727
     37       0.00000           2.867773           78.03607
     38       0.00000           3.058375           83.22262
     39       0.00000           3.149906           85.71330
     40       0.00000           3.432905           93.41411
     41       0.00000           3.491361           95.00478
     42       0.00000           3.505941           95.40151
     43       0.00000           3.594342           97.80702
     44       0.00000           3.631662           98.82255
     45       0.00000           3.764792          102.44522
     46       0.00000           3.812707          103.74905
     47       0.00000           3.849036          104.73761
     48       0.00000           4.320007          117.55337
     49       0.00000           4.432304          120.60913
     50       0.00000           4.480032          121.90788
     51       0.00000           4.558624          124.04646
     52       0.00000           5.181821          141.00452
     53       0.00000           5.452890          148.38068
     54       0.00000           5.626319          153.09993
     55       0.00000           5.728278          155.87437
     56       0.00000           5.851626          159.23084
     57       0.00000           5.999229          163.24732
     58       0.00000           6.145071          167.21588
     59       0.00000           6.303333          171.52242
     60       0.00000           6.459059          175.75993
     61       0.00000           6.661957          181.28108
     62       0.00000           6.788821          184.73322
     63       0.00000           7.752426          210.95425
     64       0.00000           7.982780          217.22249
     65       0.00000           8.119588          220.94522
     66       0.00000           8.276749          225.22181
     67       0.00000           9.109627          247.88557
     68       0.00000           9.244828          251.56457
     69       0.00000          10.405638          283.15182

  Highest occupied state (VBM) at    -13.34425626 eV (relative to internal zero)
  | Occupation number:      2.00000000
  | K-point:       1 at    0.000000    0.000000    0.000000 (in units of recip. lattice)

  Lowest unoccupied state (CBM) at    -2.80283464 eV (relative to internal zero)
  | Occupation number:      0.00000000
  | K-point:       1 at    0.000000    0.000000    0.000000 (in units of recip. lattice)

  ESTIMATED overall HOMO-LUMO gap:     10.54142162 eV between HOMO at k-point 1 and LUMO at k-point 1
  The gap value is above 0.2 eV. Unless you are using a very sparse k-point grid,
  this system is most likely an insulator or a semiconductor.
  Calculating total energy contributions from superposition of free atom densities.

  Total energy components:
  | Sum of eigenvalues            :         -44.17184412 Ha       -1201.97703440 eV
  | XC energy correction          :          -9.08092284 Ha        -247.10448308 eV
  | XC potential correction       :          11.67884758 Ha         317.79761210 eV
  | Free-atom electrostatic energy:         -34.87312567 Ha        -948.94603137 eV
  | Hartree energy correction     :           0.00000000 Ha           0.00000000 eV
  | Entropy correction            :           0.00000000 Ha           0.00000000 eV
  | ---------------------------
  | Total energy                  :         -76.44704505 Ha       -2080.22993674 eV
  | Total energy, T -> 0          :         -76.44704505 Ha       -2080.22993674 eV  <-- do not rely on this value for anything but (periodic) metals
  | Electronic free energy        :         -76.44704505 Ha       -2080.22993674 eV

  Derived energy quantities:
  | Kinetic energy                :          75.60725581 Ha        2057.37810895 eV
  | Electrostatic energy          :        -142.97337802 Ha       -3890.50356262 eV
  | Energy correction for multipole
  | error in Hartree potential    :           0.00000000 Ha           0.00000000 eV
  | Sum of eigenvalues per atom                           :        -400.65901147 eV
  | Total energy (T->0) per atom                          :        -693.40997891 eV  <-- do not rely on this value for anything but (periodic) metals
  | Electronic free energy per atom                       :        -693.40997891 eV
  Initialize hartree_potential_storage
  Max. number of atoms included in rho_multipole:            3

  End scf initialization - timings             :  max(cpu_time)    wall_clock(cpu1)
  | Time for scf. initialization                :        0.304 s           0.302 s
  | Boundary condition initialization           :        0.048 s           0.046 s
  | Integration                                 :        0.120 s           0.116 s
  | Solution of K.-S. eqns.                     :        0.016 s           0.015 s
  | Grid partitioning                           :        0.032 s           0.030 s
  | Preloading free-atom quantities on grid     :        0.124 s           0.119 s
  | Free-atom superposition energy              :        0.012 s           0.011 s
  | Total energy evaluation                     :        0.000 s           0.001 s

  Partial memory accounting:
  | Current value for overall tracked memory usage:
  |   Minimum:        0.717 MB (on task  5)
  |   Maximum:        0.722 MB (on task  0)
  |   Average:        0.718 MB
  | Peak value for overall tracked memory usage:
  |   Minimum:        3.434 MB (on task 14 after allocating wave)
  |   Maximum:        4.215 MB (on task 12 after allocating wave)
  |   Average:        3.832 MB
  | Largest tracked array allocation so far:
  |   Minimum:        0.908 MB (hamiltonian_shell on task 14)
  |   Maximum:        1.378 MB (hamiltonian_shell on task 12)
  |   Average:        1.145 MB
  Note:  These values currently only include a subset of arrays which are explicitly tracked.
  The "true" memory usage will be greater.
------------------------------------------------------------
  Evaluating new KS density using the density matrix
  Evaluating density matrix
  Finished density matrix calculation
  | Time :     0.001 s
  Time summed over all CPUs for getting density from density matrix: real work        2.114 s, elapsed        2.250 s
  Integration grid: deviation in total charge (<rho> - N_e) =  -5.329071E-15

  Time for density update prior                :  max(cpu_time)    wall_clock(cpu1)
  | self-consistency iterative process          :        0.148 s           0.144 s

------------------------------------------------------------
          Begin self-consistency iteration #    1

  Date     :  20221003, Time     :  094559.546
------------------------------------------------------------
  Pulay mixing of updated and previous charge densities.
  Renormalizing the density to the exact electron count on the 3D integration grid.
  | Formal number of electrons (from input files) :      10.0000000000
  | Integrated number of electrons on 3D grid     :       9.9996292385
  | Charge integration error                      :      -0.0003707615
  | Normalization factor for density and gradient :       1.0000370775

  Evaluating partitioned Hartree potential by multipole expansion.
  | Original multipole sum: apparent total charge =  -0.673056E-14
  | Sum of charges compensated after spline to logarithmic grids =   0.500049E-07
  | Analytical far-field extrapolation by fixed multipoles:
  | Hartree multipole sum: apparent total charge =  -0.675208E-14
  Summing up the Hartree potential.
  Time summed over all CPUs for potential: real work        2.375 s, elapsed        2.466 s
  | RMS charge density error from multipole expansion :   0.164484E-03
  | Average real-space part of the electrostatic potential :      0.01107690 eV

  Integrating Hamiltonian matrix: batch-based integration.
  Time summed over all CPUs for integration: real work        1.061 s, elapsed        1.107 s

  Updating Kohn-Sham eigenvalues and eigenvectors using ELSI and the ELPA eigensolver.
  Starting ELPA eigensolver
  Finished transformation to standard eigenproblem
  | Time :     0.001 s
  Finished solving standard eigenproblem
  | Time :     0.004 s
  Finished back-transformation of eigenvectors
  | Time :     0.001 s

  Obtaining occupation numbers and electronic chemical potential using ELSI.
  | Note that, for insulating systems, the printed 'chemical potential' value is not uniquely defined.
  | It can be anywhere in the energy gap, as long as it correctly separates occupied and unoccupied states.
  | In systems with a gap, the physically relevant chemical potential is the VBM or HOMO.

  | Chemical potential (Fermi level):    -4.57222708 eV
  Writing Kohn-Sham eigenvalues.

  State    Occupation    Eigenvalue [Ha]    Eigenvalue [eV]
      1       2.00000         -19.042444         -518.17125
      2       2.00000          -1.199889          -32.65064
      3       2.00000          -0.722680          -19.66513
      4       2.00000          -0.544629          -14.82012
      5       2.00000          -0.472892          -12.86806
      6       0.00000          -0.101663           -2.76639
      7       0.00000           0.093884            2.55471
      8       0.00000           0.121085            3.29489
      9       0.00000           0.185889            5.05829
     10       0.00000           0.209033            5.68807
     11       0.00000           0.218839            5.95492
     12       0.00000           0.346719            9.43469
     13       0.00000           0.433714           11.80195
     14       0.00000           0.461346           12.55387
     15       0.00000           0.468145           12.73887
     16       0.00000           0.531032           14.45012
     17       0.00000           0.628563           17.10408
     18       0.00000           0.700367           19.05795
     19       0.00000           0.910810           24.78439
     20       0.00000           1.040520           28.31398
     21       0.00000           1.059360           28.82665
     22       0.00000           1.088450           29.61823
     23       0.00000           1.098720           29.89769
     24       0.00000           1.150506           31.30687
     25       0.00000           1.437891           39.12700
     26       0.00000           1.460130           39.73215
     27       0.00000           1.516130           41.25599
     28       0.00000           1.799098           48.95594
     29       0.00000           2.140706           58.25156
     30       0.00000           2.161922           58.82889
     31       0.00000           2.204138           59.97764
     32       0.00000           2.264010           61.60685
     33       0.00000           2.380241           64.76967
     34       0.00000           2.431565           66.16626
     35       0.00000           2.586128           70.37213
     36       0.00000           2.828603           76.97022
     37       0.00000           2.873699           78.19732
     38       0.00000           3.063203           83.35398
     39       0.00000           3.162885           86.06648
     40       0.00000           3.443732           93.70871
     41       0.00000           3.499510           95.22651
     42       0.00000           3.513535           95.60816
     43       0.00000           3.600493           97.97440
     44       0.00000           3.641214           99.08246
     45       0.00000           3.773028          102.66932
     46       0.00000           3.823991          104.05609
     47       0.00000           3.859913          105.03358
     48       0.00000           4.331394          117.86323
     49       0.00000           4.439196          120.79666
     50       0.00000           4.490818          122.20139
     51       0.00000           4.567159          124.27873
     52       0.00000           5.193084          141.31101
     53       0.00000           5.464618          148.69983
     54       0.00000           5.636922          153.38844
     55       0.00000           5.738782          156.16020
     56       0.00000           5.860946          159.48445
     57       0.00000           6.009424          163.52475
     58       0.00000           6.155382          167.49646
     59       0.00000           6.314310          171.82113
     60       0.00000           6.470678          176.07611
     61       0.00000           6.673423          181.59308
     62       0.00000           6.801256          185.07160
     63       0.00000           7.766068          211.32545
     64       0.00000           7.996564          217.59759
     65       0.00000           8.132399          221.29383
     66       0.00000           8.291943          225.63524
     67       0.00000           9.123174          248.25419
     68       0.00000           9.256900          251.89305
     69       0.00000          10.420062          283.54430

  Highest occupied state (VBM) at    -12.86805884 eV (relative to internal zero)
  | Occupation number:      2.00000000
  | K-point:       1 at    0.000000    0.000000    0.000000 (in units of recip. lattice)

  Lowest unoccupied state (CBM) at    -2.76638928 eV (relative to internal zero)
  | Occupation number:      0.00000000
  | K-point:       1 at    0.000000    0.000000    0.000000 (in units of recip. lattice)

  ESTIMATED overall HOMO-LUMO gap:     10.10166956 eV between HOMO at k-point 1 and LUMO at k-point 1
  The gap value is above 0.2 eV. Unless you are using a very sparse k-point grid,
  this system is most likely an insulator or a semiconductor.

  Total energy components:
  | Sum of eigenvalues            :         -43.96506915 Ha       -1196.35040124 eV
  | XC energy correction          :          -9.10550077 Ha        -247.77328248 eV
  | XC potential correction       :          11.71072544 Ha         318.66505269 eV
  | Free-atom electrostatic energy:         -34.87312567 Ha        -948.94603137 eV
  | Hartree energy correction     :          -0.19529648 Ha          -5.31428757 eV
  | Entropy correction            :           0.00000000 Ha           0.00000000 eV
  | ---------------------------
  | Total energy                  :         -76.42826663 Ha       -2079.71894996 eV
  | Total energy, T -> 0          :         -76.42826663 Ha       -2079.71894996 eV  <-- do not rely on this value for anything but (periodic) metals
  | Electronic free energy        :         -76.42826663 Ha       -2079.71894996 eV

  Derived energy quantities:
  | Kinetic energy                :          75.78050717 Ha        2062.09251816 eV
  | Electrostatic energy          :        -143.10327303 Ha       -3894.03818564 eV
  | Energy correction for multipole
  | error in Hartree potential    :          -0.00020931 Ha          -0.00569559 eV
  | Sum of eigenvalues per atom                           :        -398.78346708 eV
  | Total energy (T->0) per atom                          :        -693.23964999 eV  <-- do not rely on this value for anything but (periodic) metals
  | Electronic free energy per atom                       :        -693.23964999 eV
  Evaluating new KS density using the density matrix
  Evaluating density matrix
  Finished density matrix calculation
  | Time :     0.000 s
  Time summed over all CPUs for getting density from density matrix: real work        2.109 s, elapsed        2.257 s
  Integration grid: deviation in total charge (<rho> - N_e) =   1.243450E-14

  Self-consistency convergence accuracy:
  | Change of charge density      :  0.3918E+00
  | Change of unmixed KS density  :  0.9141E+01
  | Change of sum of eigenvalues  :  0.5627E+01 eV
  | Change of total energy        :  0.5110E+00 eV


------------------------------------------------------------
  End self-consistency iteration #     1       :  max(cpu_time)    wall_clock(cpu1)
  | Time for this iteration                     :        0.492 s           0.490 s
  | Charge density update                       :        0.144 s           0.144 s
  | Density mixing & preconditioning            :        0.096 s           0.092 s
  | Hartree multipole update                    :        0.004 s           0.004 s
  | Hartree multipole summation                 :        0.168 s           0.165 s
  | Integration                                 :        0.072 s           0.072 s
  | Solution of K.-S. eqns.                     :        0.008 s           0.007 s
  | Total energy evaluation                     :        0.008 s           0.002 s

  Partial memory accounting:
  | Current value for overall tracked memory usage:
  |   Minimum:        0.717 MB (on task  5)
  |   Maximum:        0.722 MB (on task  0)
  |   Average:        0.718 MB
  | Peak value for overall tracked memory usage:
  |   Minimum:        4.279 MB (on task 14 after allocating gradient_basis_wave)
  |   Maximum:        5.366 MB (on task 12 after allocating gradient_basis_wave)
  |   Average:        4.835 MB
  | Largest tracked array allocation so far:
  |   Minimum:        1.327 MB (gradient_basis_wave on task 14)
  |   Maximum:        1.634 MB (gradient_basis_wave on task 12)
  |   Average:        1.486 MB
  Note:  These values currently only include a subset of arrays which are explicitly tracked.
  The "true" memory usage will be greater.
------------------------------------------------------------

------------------------------------------------------------
          Begin self-consistency iteration #    2

  Date     :  20221003, Time     :  094600.040
------------------------------------------------------------
  Pulay mixing of updated and previous charge densities.
  Renormalizing the density to the exact electron count on the 3D integration grid.
  | Formal number of electrons (from input files) :      10.0000000000
  | Integrated number of electrons on 3D grid     :       9.9965152272
  | Charge integration error                      :      -0.0034847728
  | Normalization factor for density and gradient :       1.0003485988

  Evaluating partitioned Hartree potential by multipole expansion.
  | Original multipole sum: apparent total charge =  -0.386184E-14
  | Sum of charges compensated after spline to logarithmic grids =   0.457184E-06
  | Analytical far-field extrapolation by fixed multipoles:
  | Hartree multipole sum: apparent total charge =  -0.426771E-14
  Summing up the Hartree potential.
  Time summed over all CPUs for potential: real work        2.791 s, elapsed        3.110 s
  | RMS charge density error from multipole expansion :   0.162024E-02
  | Average real-space part of the electrostatic potential :      0.11024134 eV

  Integrating Hamiltonian matrix: batch-based integration.
  Time summed over all CPUs for integration: real work        1.045 s, elapsed        1.093 s

  Updating Kohn-Sham eigenvalues and eigenvectors using ELSI and the ELPA eigensolver.
  Starting ELPA eigensolver
  Finished transformation to standard eigenproblem
  | Time :     0.001 s
  Finished solving standard eigenproblem
  | Time :     0.004 s
  Finished back-transformation of eigenvectors
  | Time :     0.001 s

  Obtaining occupation numbers and electronic chemical potential using ELSI.
  | Note that, for insulating systems, the printed 'chemical potential' value is not uniquely defined.
  | It can be anywhere in the energy gap, as long as it correctly separates occupied and unoccupied states.
  | In systems with a gap, the physically relevant chemical potential is the VBM or HOMO.

  | Chemical potential (Fermi level):    -5.48012462 eV
  Highest occupied state (VBM) at     -8.87444440 eV (relative to internal zero)
  | Occupation number:      2.00000000
  | K-point:       1 at    0.000000    0.000000    0.000000 (in units of recip. lattice)

  Lowest unoccupied state (CBM) at    -2.43388146 eV (relative to internal zero)
  | Occupation number:      0.00000000
  | K-point:       1 at    0.000000    0.000000    0.000000 (in units of recip. lattice)

  ESTIMATED overall HOMO-LUMO gap:      6.44056294 eV between HOMO at k-point 1 and LUMO at k-point 1
  The gap value is above 0.2 eV. Unless you are using a very sparse k-point grid,
  this system is most likely an insulator or a semiconductor.

  Checking to see if s.c.f. parameters should be adjusted.
  The system likely has a gap. Increased the default Pulay mixing parameter (charge_mix_param). Value:   0.200000 .
  Kept the default occupation width. Value:   0.010000 eV.

  Total energy components:
  | Sum of eigenvalues            :         -42.20456575 Ha       -1148.44466629 eV
  | XC energy correction          :          -9.32830615 Ha        -253.83612539 eV
  | XC potential correction       :          11.99961776 Ha         326.52621270 eV
  | Free-atom electrostatic energy:         -34.87312567 Ha        -948.94603137 eV
  | Hartree energy correction     :          -1.93409070 Ha         -52.62928574 eV
  | Entropy correction            :           0.00000000 Ha           0.00000000 eV
  | ---------------------------
  | Total energy                  :         -76.34047051 Ha       -2077.32989609 eV
  | Total energy, T -> 0          :         -76.34047051 Ha       -2077.32989609 eV  <-- do not rely on this value for anything but (periodic) metals
  | Electronic free energy        :         -76.34047051 Ha       -2077.32989609 eV

  Derived energy quantities:
  | Kinetic energy                :          77.14830027 Ha        2099.31206206 eV
  | Electrostatic energy          :        -144.16046463 Ha       -3922.80583275 eV
  | Energy correction for multipole
  | error in Hartree potential    :          -0.00199981 Ha          -0.05441758 eV
  | Sum of eigenvalues per atom                           :        -382.81488876 eV
  | Total energy (T->0) per atom                          :        -692.44329870 eV  <-- do not rely on this value for anything but (periodic) metals
  | Electronic free energy per atom                       :        -692.44329870 eV
  Evaluating new KS density using the density matrix
  Evaluating density matrix
  Finished density matrix calculation
  | Time :     0.000 s
  Time summed over all CPUs for getting density from density matrix: real work        2.091 s, elapsed        2.219 s
  Integration grid: deviation in total charge (<rho> - N_e) =   3.552714E-15

  Self-consistency convergence accuracy:
  | Change of charge density      :  0.3563E+00
  | Change of unmixed KS density  :  0.2415E-01
  | Change of sum of eigenvalues  :  0.4791E+02 eV
  | Change of total energy        :  0.2389E+01 eV


------------------------------------------------------------
  End self-consistency iteration #     2       :  max(cpu_time)    wall_clock(cpu1)
  | Time for this iteration                     :        0.516 s           0.515 s
  | Charge density update                       :        0.144 s           0.142 s
  | Density mixing & preconditioning            :        0.084 s           0.082 s
  | Hartree multipole update                    :        0.004 s           0.003 s
  | Hartree multipole summation                 :        0.212 s           0.208 s
  | Integration                                 :        0.072 s           0.071 s
  | Solution of K.-S. eqns.                     :        0.008 s           0.006 s
  | Total energy evaluation                     :        0.004 s           0.002 s

  Partial memory accounting:
  | Current value for overall tracked memory usage:
  |   Minimum:        0.718 MB (on task  5)
  |   Maximum:        0.722 MB (on task  0)
  |   Average:        0.719 MB
  | Peak value for overall tracked memory usage:
  |   Minimum:        4.279 MB (on task 14 after allocating gradient_basis_wave)
  |   Maximum:        5.366 MB (on task 12 after allocating gradient_basis_wave)
  |   Average:        4.836 MB
  | Largest tracked array allocation so far:
  |   Minimum:        1.327 MB (gradient_basis_wave on task 14)
  |   Maximum:        1.634 MB (gradient_basis_wave on task 12)
  |   Average:        1.486 MB
  Note:  These values currently only include a subset of arrays which are explicitly tracked.
  The "true" memory usage will be greater.
------------------------------------------------------------

------------------------------------------------------------
          Begin self-consistency iteration #    3

  Date     :  20221003, Time     :  094600.559
------------------------------------------------------------
  Pulay mixing of updated and previous charge densities.
  Renormalizing the density to the exact electron count on the 3D integration grid.
  | Formal number of electrons (from input files) :      10.0000000000
  | Integrated number of electrons on 3D grid     :       9.9987226676
  | Charge integration error                      :      -0.0012773324
  | Normalization factor for density and gradient :       1.0001277496

  Evaluating partitioned Hartree potential by multipole expansion.
  | Original multipole sum: apparent total charge =  -0.351748E-14
  | Sum of charges compensated after spline to logarithmic grids =   0.107913E-06
  | Analytical far-field extrapolation by fixed multipoles:
  | Hartree multipole sum: apparent total charge =  -0.364047E-14
  Summing up the Hartree potential.
  Time summed over all CPUs for potential: real work        2.765 s, elapsed        2.886 s
  | RMS charge density error from multipole expansion :   0.177510E-02
  | Average real-space part of the electrostatic potential :      0.10653566 eV

  Integrating Hamiltonian matrix: batch-based integration.
  Time summed over all CPUs for integration: real work        1.059 s, elapsed        1.104 s

  Updating Kohn-Sham eigenvalues and eigenvectors using ELSI and the ELPA eigensolver.
  Starting ELPA eigensolver
  Finished transformation to standard eigenproblem
  | Time :     0.001 s
  Finished solving standard eigenproblem
  | Time :     0.004 s
  Finished back-transformation of eigenvectors
  | Time :     0.001 s

  Obtaining occupation numbers and electronic chemical potential using ELSI.
  | Note that, for insulating systems, the printed 'chemical potential' value is not uniquely defined.
  | It can be anywhere in the energy gap, as long as it correctly separates occupied and unoccupied states.
  | In systems with a gap, the physically relevant chemical potential is the VBM or HOMO.

  | Chemical potential (Fermi level):    -6.78000303 eV
  Highest occupied state (VBM) at     -9.61949063 eV (relative to internal zero)
  | Occupation number:      2.00000000
  | K-point:       1 at    0.000000    0.000000    0.000000 (in units of recip. lattice)

  Lowest unoccupied state (CBM) at    -2.46832409 eV (relative to internal zero)
  | Occupation number:      0.00000000
  | K-point:       1 at    0.000000    0.000000    0.000000 (in units of recip. lattice)

  ESTIMATED overall HOMO-LUMO gap:      7.15116654 eV between HOMO at k-point 1 and LUMO at k-point 1
  The gap value is above 0.2 eV. Unless you are using a very sparse k-point grid,
  this system is most likely an insulator or a semiconductor.

  Total energy components:
  | Sum of eigenvalues            :         -42.59632405 Ha       -1159.10495199 eV
  | XC energy correction          :          -9.27798683 Ha        -252.46686689 eV
  | XC potential correction       :          11.93490949 Ha         324.76541118 eV
  | Free-atom electrostatic energy:         -34.87312567 Ha        -948.94603137 eV
  | Hartree energy correction     :          -1.53350025 Ha         -41.72866499 eV
  | Entropy correction            :           0.00000000 Ha           0.00000000 eV
  | ---------------------------
  | Total energy                  :         -76.34602731 Ha       -2077.48110405 eV
  | Total energy, T -> 0          :         -76.34602731 Ha       -2077.48110405 eV  <-- do not rely on this value for anything but (periodic) metals
  | Electronic free energy        :         -76.34602731 Ha       -2077.48110405 eV

  Derived energy quantities:
  | Kinetic energy                :          76.60849088 Ha        2084.62310140 eV
  | Electrostatic energy          :        -143.67653136 Ha       -3909.63733857 eV
  | Energy correction for multipole
  | error in Hartree potential    :          -0.00115534 Ha          -0.03143851 eV
  | Sum of eigenvalues per atom                           :        -386.36831733 eV
  | Total energy (T->0) per atom                          :        -692.49370135 eV  <-- do not rely on this value for anything but (periodic) metals
  | Electronic free energy per atom                       :        -692.49370135 eV
  Evaluating new KS density using the density matrix
  Evaluating density matrix
  Finished density matrix calculation
  | Time :     0.000 s
  Time summed over all CPUs for getting density from density matrix: real work        2.168 s, elapsed        2.579 s
  Integration grid: deviation in total charge (<rho> - N_e) =   8.881784E-15

  Self-consistency convergence accuracy:
  | Change of charge density      :  0.1314E+00
  | Change of unmixed KS density  :  0.2187E+00
  | Change of sum of eigenvalues  : -0.1066E+02 eV
  | Change of total energy        : -0.1512E+00 eV


------------------------------------------------------------
  End self-consistency iteration #     3       :  max(cpu_time)    wall_clock(cpu1)
  | Time for this iteration                     :        0.564 s           0.560 s
  | Charge density update                       :        0.164 s           0.164 s
  | Density mixing & preconditioning            :        0.124 s           0.120 s
  | Hartree multipole update                    :        0.004 s           0.003 s
  | Hartree multipole summation                 :        0.196 s           0.192 s
  | Integration                                 :        0.072 s           0.071 s
  | Solution of K.-S. eqns.                     :        0.008 s           0.007 s
  | Total energy evaluation                     :        0.004 s           0.002 s

  Partial memory accounting:
  | Current value for overall tracked memory usage:
  |   Minimum:        0.718 MB (on task  5)
  |   Maximum:        0.722 MB (on task  0)
  |   Average:        0.719 MB
  | Peak value for overall tracked memory usage:
  |   Minimum:        4.279 MB (on task 14 after allocating gradient_basis_wave)
  |   Maximum:        5.366 MB (on task 12 after allocating gradient_basis_wave)
  |   Average:        4.836 MB
  | Largest tracked array allocation so far:
  |   Minimum:        1.327 MB (gradient_basis_wave on task 14)
  |   Maximum:        1.634 MB (gradient_basis_wave on task 12)
  |   Average:        1.486 MB
  Note:  These values currently only include a subset of arrays which are explicitly tracked.
  The "true" memory usage will be greater.
------------------------------------------------------------

------------------------------------------------------------
          Begin self-consistency iteration #    4

  Date     :  20221003, Time     :  094601.122
------------------------------------------------------------
  Pulay mixing of updated and previous charge densities.
  Renormalizing the density to the exact electron count on the 3D integration grid.
  | Formal number of electrons (from input files) :      10.0000000000
  | Integrated number of electrons on 3D grid     :       9.9962002156
  | Charge integration error                      :      -0.0037997844
  | Normalization factor for density and gradient :       1.0003801229

  Evaluating partitioned Hartree potential by multipole expansion.
  | Original multipole sum: apparent total charge =   0.125448E-14
  | Sum of charges compensated after spline to logarithmic grids =  -0.480571E-07
  | Analytical far-field extrapolation by fixed multipoles:
  | Hartree multipole sum: apparent total charge =   0.154966E-14
  Summing up the Hartree potential.
  Time summed over all CPUs for potential: real work        2.842 s, elapsed        2.964 s
  | RMS charge density error from multipole expansion :   0.294112E-02
  | Average real-space part of the electrostatic potential :      0.16237001 eV

  Integrating Hamiltonian matrix: batch-based integration.
  Time summed over all CPUs for integration: real work        1.057 s, elapsed        1.105 s

  Updating Kohn-Sham eigenvalues and eigenvectors using ELSI and the ELPA eigensolver.
  Starting ELPA eigensolver
  Finished transformation to standard eigenproblem
  | Time :     0.001 s
  Finished solving standard eigenproblem
  | Time :     0.004 s
  Finished back-transformation of eigenvectors
  | Time :     0.000 s

  Obtaining occupation numbers and electronic chemical potential using ELSI.
  | Note that, for insulating systems, the printed 'chemical potential' value is not uniquely defined.
  | It can be anywhere in the energy gap, as long as it correctly separates occupied and unoccupied states.
  | In systems with a gap, the physically relevant chemical potential is the VBM or HOMO.

  | Chemical potential (Fermi level):    -5.21220537 eV
  Highest occupied state (VBM) at     -8.26098555 eV (relative to internal zero)
  | Occupation number:      2.00000000
  | K-point:       1 at    0.000000    0.000000    0.000000 (in units of recip. lattice)

  Lowest unoccupied state (CBM) at    -2.27439908 eV (relative to internal zero)
  | Occupation number:      0.00000000
  | K-point:       1 at    0.000000    0.000000    0.000000 (in units of recip. lattice)

  ESTIMATED overall HOMO-LUMO gap:      5.98658647 eV between HOMO at k-point 1 and LUMO at k-point 1
  The gap value is above 0.2 eV. Unless you are using a very sparse k-point grid,
  this system is most likely an insulator or a semiconductor.

  Total energy components:
  | Sum of eigenvalues            :         -42.05658004 Ha       -1144.41777017 eV
  | XC energy correction          :          -9.35662911 Ha        -254.60683247 eV
  | XC potential correction       :          12.03806031 Ha         327.57228761 eV
  | Free-atom electrostatic energy:         -34.87312567 Ha        -948.94603137 eV
  | Hartree energy correction     :          -2.08568490 Ha         -56.75437367 eV
  | Entropy correction            :           0.00000000 Ha           0.00000000 eV
  | ---------------------------
  | Total energy                  :         -76.33395942 Ha       -2077.15272006 eV
  | Total energy, T -> 0          :         -76.33395942 Ha       -2077.15272006 eV  <-- do not rely on this value for anything but (periodic) metals
  | Electronic free energy        :         -76.33395942 Ha       -2077.15272006 eV

  Derived energy quantities:
  | Kinetic energy                :          76.70912982 Ha        2087.36162619 eV
  | Electrostatic energy          :        -143.68646012 Ha       -3909.90751378 eV
  | Energy correction for multipole
  | error in Hartree potential    :          -0.00122272 Ha          -0.03327177 eV
  | Sum of eigenvalues per atom                           :        -381.47259006 eV
  | Total energy (T->0) per atom                          :        -692.38424002 eV  <-- do not rely on this value for anything but (periodic) metals
  | Electronic free energy per atom                       :        -692.38424002 eV
  Evaluating new KS density using the density matrix
  Evaluating density matrix
  Finished density matrix calculation
  | Time :     0.000 s
  Time summed over all CPUs for getting density from density matrix: real work        2.115 s, elapsed        2.367 s
  Integration grid: deviation in total charge (<rho> - N_e) =  -3.552714E-15

  Self-consistency convergence accuracy:
  | Change of charge density      :  0.1236E+00
  | Change of unmixed KS density  :  0.6350E-01
  | Change of sum of eigenvalues  :  0.1469E+02 eV
  | Change of total energy        :  0.3284E+00 eV


------------------------------------------------------------
  End self-consistency iteration #     4       :  max(cpu_time)    wall_clock(cpu1)
  | Time for this iteration                     :        0.536 s           0.533 s
  | Charge density update                       :        0.160 s           0.159 s
  | Density mixing & preconditioning            :        0.080 s           0.077 s
  | Hartree multipole update                    :        0.004 s           0.003 s
[...]
  9.998386915277505E-006 -1.650617581561287E-005  2.307326257384164E-005
 FOU  0.000000000000000E+000  0.000000000000000E+000  0.000000000000000E+000
  0.000000000000000E+000  0.000000000000000E+000  0.000000000000000E+000
  0.000000000000000E+000  0.000000000000000E+000  0.000000000000000E+000
 FOU  0.000000000000000E+000  0.000000000000000E+000  0.000000000000000E+000
  0.000000000000000E+000  0.000000000000000E+000  0.000000000000000E+000
  0.000000000000000E+000  0.000000000000000E+000  0.000000000000000E+000
 FOU  0.000000000000000E+000  0.000000000000000E+000  0.000000000000000E+000
  0.000000000000000E+000  0.000000000000000E+000  0.000000000000000E+000
  0.000000000000000E+000  0.000000000000000E+000  0.000000000000000E+000
 -5.612016525030699E-004  1.126634303200822E-002  2.601819242500518E-003
  0.000000000000000E+000  0.000000000000000E+000  0.000000000000000E+000
  0.000000000000000E+000  0.000000000000000E+000  0.000000000000000E+000
  0.000000000000000E+000  0.000000000000000E+000  0.000000000000000E+000
  1.752859293778696E-006 -4.284718692797199E-005 -9.576300166276637E-004
  0.000000000000000E+000  0.000000000000000E+000  0.000000000000000E+000
  0.000000000000000E+000  0.000000000000000E+000  0.000000000000000E+000
  0.000000000000000E+000  0.000000000000000E+000  0.000000000000000E+000
  End CPSCF iteration #     5                  :  max(cpu_time)    wall_clock(cpu1)
  | Time for this iteration                     :        1.332 s           1.328 s
  | first_order_DM                              :        0.004 s           0.003 s
  | first_order_density                         :        0.152 s           0.152 s
  | first_order_potential                       :        0.256 s           0.255 s
  | first_order_H                               :        0.912 s           0.912 s
  | Solution of Sternheimer eqns.               :        0.004 s           0.003 s
------------------------------------------------------------

--------------------- CPSCF ---------------------------------------
          Begin CP-self-consistency iteration #    6

  Date     :  20221003, Time     :  094629.558
------------------------------------------------------------

  CPSCF convergence accuracy:
  | Change of first_order_density_matrix     :  0.6929E-03
  Integrating first_order_rho: batch-based integration.
  Time summed over all CPUs for integration: real work        1.972 s, elapsed        2.183 s

  Evaluating partitioned Hartree potential by multipole expansion.
  | Original multipole sum: apparent total charge =  -0.633392E-15
  | Sum of charges compensated after spline to logarithmic grids =   0.270026E-06
  | Analytical far-field extrapolation by fixed multipoles:
  | Hartree multipole sum: apparent total charge =  -0.467357E-15
  Summing up the Hartree potential.
  Time summed over all CPUs for potential: real work        3.389 s, elapsed        3.541 s
  | RMS delta_rho error from multipole expansion :   0.204093E-01

  Integrating first-order-Hamiltonian matrix: batch-based integration.
  Time summed over all CPUs for integration: real work       13.343 s, elapsed       14.571 s
 FOH  1.372483009592663E-002 -1.716624453583562E-005  4.107045888042442E-007
  0.000000000000000E+000  2.570141768193840E-003  2.454299340863053E-003
  0.000000000000000E+000  0.000000000000000E+000  9.938167660754494E-003
 FOH -2.346390290423546E-006  1.968539882309631E-005  6.975738742588694E-007
  1.421735900895552E-005  1.280530010569754E-004  1.507644713606109E-005
  1.638889588809806E-005 -1.925642009272197E-004 -1.334672765032879E-004
 FOH  0.000000000000000E+000  0.000000000000000E+000  0.000000000000000E+000
 FOH -8.467659491081036E-004 -5.143361019842550E-005 -1.447257903291063E-006
  8.707850894299081E-003  3.000992281834983E-004 -1.487582451234857E-004
 -2.262387299438576E-003  2.942057510759592E-004  1.795452451609563E-005
 FOH  0.000000000000000E+000  0.000000000000000E+000  0.000000000000000E+000
  0.000000000000000E+000  0.000000000000000E+000  0.000000000000000E+000
  0.000000000000000E+000  0.000000000000000E+000  0.000000000000000E+000
 FOH -5.301637319013614E-004  2.178518744933981E-003 -2.820077502732788E-004
  4.604593873388100E-004 -7.399193544076889E-004  5.295830210177916E-002
  2.498528928239765E-003 -1.171558089156210E-003 -8.022282959806376E-002
 FOH -1.714429070430594E-003 -2.601875347729014E-005 -4.828554880383295E-003
 -1.042336109942459E-005  5.134667932990439E-004 -6.111755878087504E-005
  8.410653882694686E-005  1.812851581386328E-003 -2.059524935260953E-005
 FOH  0.000000000000000E+000  0.000000000000000E+000  0.000000000000000E+000
  0.000000000000000E+000  0.000000000000000E+000  0.000000000000000E+000
  0.000000000000000E+000  0.000000000000000E+000  0.000000000000000E+000
 FOH  6.167247805980370E-003  2.733565730167985E-003  8.254783996373546E-004
  0.000000000000000E+000  6.595956876445663E-003  7.739312711869552E-006
  0.000000000000000E+000  0.000000000000000E+000  3.140990861304912E-003
 FOH  4.778984298283028E-003 -3.923588904020969E-003  9.579446949860496E-005
  0.000000000000000E+000  4.392709569105114E-003  4.870210428557840E-004
  0.000000000000000E+000  0.000000000000000E+000  4.850366161206926E-003
 FOH  5.594529891511990E-002 -2.528210718847234E-002 -1.752937755529657E-003
  1.579864654174812E-003  3.759313563433762E-004  4.325413571163877E-002
  7.600237754535623E-004 -1.575197876169755E-004 -1.883113789761358E-002
 FOH  0.000000000000000E+000  0.000000000000000E+000  0.000000000000000E+000
 FOH  0.000000000000000E+000  0.000000000000000E+000  0.000000000000000E+000
 FOH -1.400158738349147E-003 -5.329308812644811E-004  2.688539270569619E-002
  1.149491470687257E-002 -1.994874022888133E-002  1.885224986012400E-003
  1.525654454128204E-003 -1.239448000629013E-003 -1.797009693729814E-002
 FOH  0.000000000000000E+000  0.000000000000000E+000  0.000000000000000E+000
  0.000000000000000E+000  0.000000000000000E+000  0.000000000000000E+000
  0.000000000000000E+000  0.000000000000000E+000  0.000000000000000E+000
  0.000000000000000E+000  0.000000000000000E+000  0.000000000000000E+000
 FOH -8.464703189717091E-003  2.761572973419348E-004 -6.861710784923440E-003
  0.000000000000000E+000  0.000000000000000E+000  0.000000000000000E+000
  0.000000000000000E+000  0.000000000000000E+000  0.000000000000000E+000
  0.000000000000000E+000 -9.604098917405868E-003  1.328496523039288E-002
  0.000000000000000E+000  0.000000000000000E+000  0.000000000000000E+000
  0.000000000000000E+000  0.000000000000000E+000 -9.335668886442895E-003
  0.000000000000000E+000  0.000000000000000E+000  0.000000000000000E+000
  0.000000000000000E+000  0.000000000000000E+000  0.000000000000000E+000
 FOU  0.000000000000000E+000  0.000000000000000E+000  0.000000000000000E+000
  0.000000000000000E+000  0.000000000000000E+000  0.000000000000000E+000
  0.000000000000000E+000  0.000000000000000E+000  0.000000000000000E+000
 FOU -1.235307622576317E-004  5.613354725170344E-004 -1.813763301648255E-006
  8.219476987858876E-004 -1.126704940407276E-002  4.285136454944545E-005
 FOU  0.000000000000000E+000  0.000000000000000E+000  0.000000000000000E+000
  0.000000000000000E+000  0.000000000000000E+000  0.000000000000000E+000
  0.000000000000000E+000  0.000000000000000E+000  0.000000000000000E+000
 FOU  0.000000000000000E+000  0.000000000000000E+000  0.000000000000000E+000
 FOU -1.947511725587523E-005  4.678639514932280E-005  2.121131625108771E-006
 -9.050116765842587E-004 -5.948762992215020E-004 -2.353696991179765E-004
 -5.104276884980120E-003 -1.494791066732888E-003 -4.588952662419449E-003
 FOU  0.000000000000000E+000  0.000000000000000E+000  0.000000000000000E+000
  0.000000000000000E+000  0.000000000000000E+000  0.000000000000000E+000
  0.000000000000000E+000  0.000000000000000E+000  0.000000000000000E+000
 FOU  1.235305307855390E-004 -8.218922019801326E-004 -3.487479615462010E-004
 -5.613313876490784E-004  1.126708162575995E-002  2.602203161334977E-003
  1.813470422576954E-006 -4.281610581805558E-005 -9.582869594087671E-004
 FOU -3.095124486126945E-007  6.518369876908273E-005 -1.004625852188988E-005
 -9.549804541511919E-006 -3.534558803357772E-005  1.666204844369724E-005
 -1.703787658639813E-005  1.173727976528613E-004 -2.295009395978443E-005
 FOU  0.000000000000000E+000  0.000000000000000E+000  0.000000000000000E+000
  0.000000000000000E+000  0.000000000000000E+000  0.000000000000000E+000
  0.000000000000000E+000  0.000000000000000E+000  0.000000000000000E+000
 FOU  0.000000000000000E+000  0.000000000000000E+000  0.000000000000000E+000
 FOU  3.087643905076841E-007  9.548070002587125E-006  1.702703098109320E-005
 FOU  0.000000000000000E+000  0.000000000000000E+000  0.000000000000000E+000
  0.000000000000000E+000  0.000000000000000E+000  0.000000000000000E+000
  0.000000000000000E+000  0.000000000000000E+000  0.000000000000000E+000
 FOU  0.000000000000000E+000  0.000000000000000E+000  0.000000000000000E+000
  3.486912569468483E-004 -2.602106012655722E-003  9.582774337711055E-004
 FOU  1.947464041807742E-005  9.050199486830946E-004  5.104589192007340E-003
 -4.678629451525331E-005  5.949371109203539E-004  1.494931708218621E-003
 -2.120960727896991E-006  2.353577432876294E-004  4.588648124363204E-003
  0.000000000000000E+000  0.000000000000000E+000  0.000000000000000E+000
 FOU  0.000000000000000E+000  0.000000000000000E+000  0.000000000000000E+000
  0.000000000000000E+000  0.000000000000000E+000  0.000000000000000E+000
  0.000000000000000E+000  0.000000000000000E+000  0.000000000000000E+000
 FOU  0.000000000000000E+000  0.000000000000000E+000  0.000000000000000E+000
  0.000000000000000E+000  0.000000000000000E+000  0.000000000000000E+000
  0.000000000000000E+000  0.000000000000000E+000  0.000000000000000E+000
 -6.518266525837844E-005  3.534046481015659E-005 -1.173547836515540E-004
  0.000000000000000E+000  0.000000000000000E+000  0.000000000000000E+000
  0.000000000000000E+000  0.000000000000000E+000  0.000000000000000E+000
  0.000000000000000E+000  0.000000000000000E+000  0.000000000000000E+000
  1.004649282193365E-005 -1.665913858586883E-005  2.294810335449643E-005
  0.000000000000000E+000  0.000000000000000E+000  0.000000000000000E+000
  0.000000000000000E+000  0.000000000000000E+000  0.000000000000000E+000

  CP-self-consistency cycle converged.

  End CPSCF iteration #     6                  :  max(cpu_time)    wall_clock(cpu1)
  | Time for this iteration                     :        1.300 s           1.298 s
  | first_order_DM                              :        0.004 s           0.003 s
  | first_order_density                         :        0.140 s           0.137 s
  | first_order_potential                       :        0.240 s           0.239 s
  | first_order_H                               :        0.912 s           0.912 s
  | Solution of Sternheimer eqns.               :        0.004 s           0.003 s
------------------------------------------------------------
dP_dE (Bohr^3) at every cycle:--->
 (9.51156674989196,0.000000000000000E+000) (0.435899501809642,0.000000000000000E+000) (-0.224751869315778,0.000000000000000E+000)
 (0.435993144087796,0.000000000000000E+000) (7.61987722193891,0.000000000000000E+000) (2.254328223332211E-002,0.000000000000000E+000)
 (-0.224741847452797,0.000000000000000E+000) (2.253159148750225E-002,0.000000000000000E+000) (12.9537745208387,0.000000000000000E+000)
DFPT polarizability (Bohr^3)        xx        yy        zz        xy        xz        yz
  | Polarizability:--->                         9.511566750                    7.619877222                   12.953774521                    0.435899502                   -0.224751869                    0.022543282

DFPT for dielectric_constant:--->  # PARSE DFPT_dielectric_tensor
               1.141695255190579             0.006493661114986            -0.003348162749068
               0.006495056118233             1.113514468843503             0.000335830700964
              -0.003348013451852             0.000335656542147             1.192974347410463

                                               :  max(cpu_time)    wall_clock(cpu1)
  | Time for  dielectric calculation            :        0.000 s           0.001 s
===========================================================================

------------------------------------------------------------------------------
  Final output of selected total energy values:

  The following output summarizes some interesting total energy values
  at the end of a run (AFTER all relaxation, molecular dynamics, etc.).

  | Total energy of the DFT / Hartree-Fock s.c.f. calculation      :          -2077.125388793 eV
  | Final zero-broadening corrected energy (caution - metals only) :          -2077.125388793 eV
  | For reference only, the value of 1 Hartree used in FHI-aims is :             27.211384500 eV
  | For reference only, the overall average (free atom contribution
  | + realspace contribution) of the electrostatic potential after
  | s.c.f. convergence is                                          :             -1.091252205 eV

  Before relying on these values, please be sure to understand exactly which
  total energy value is referred to by a given number. Different objects may
  all carry the same name 'total energy'. Definitions:

  Total energy of the DFT / Hartree-Fock s.c.f. calculation:
  | Note that this energy does not include ANY quantities calculated after the
  | s.c.f. cycle, in particular not ANY RPA, MP2, etc. many-body perturbation terms.

  Final zero-broadening corrected energy:
  | For metallic systems only, a broadening of the occupation numbers at the Fermi
  | level can be extrapolated back to zero broadening by an electron-gas inspired
  | formula. For all systems that are not real metals, this value can be
  | meaningless and should be avoided.

------------------------------------------------------------------------------
  Methods described in the following list of references were used in this FHI-aims run.
  If you publish the results, please make sure to cite these reference if they apply.
  FHI-aims is an academic code, and for our developers (often, Ph.D. students
  and postdocs), scientific credit in the community is essential.
  Thank you for helping us!

  For any use of FHI-aims, please cite:

    Volker Blum, Ralf Gehrke, Felix Hanke, Paula Havu, Ville Havu,
    Xinguo Ren, Karsten Reuter, and Matthias Scheffler
    'Ab initio molecular simulations with numeric atom-centered orbitals'
    Computer Physics Communications 180, 2175-2196 (2009)
    http://doi.org/10.1016/j.cpc.2009.06.022


  The provided symmetry information was generated with SPGlib:

    Atsushi Togo, Yusuke Seto, Dimitar Pashov
    SPGlib 1.7.3 obtained from http://spglib.sourceforge.net
    Copyright (C) 2008 Atsushi Togo


  The DFPT (perturbation by an electric field) part of the code was used.
  Here is the corresponding reference:

    Honghui Shang, Nathaniel Raimbault, Mariana Rossi,
    Christian Carbogno, Patrick Rinke and Matthias Scheffler,
    'All-Electron, Real-Space Perturbation Theory for Homogeneous
    Electric Fields: Theory, Implementation, and Application within dft'
    New Journal of Physics, 20(7):073040, 2018


  The ELSI infrastructure was used in your run to solve the Kohn-Sham electronic structure.
  Please check out http://elsi-interchange.org to learn more.
  If scalability is important for your project, please acknowledge ELSI by citing:

    V. W-z. Yu, F. Corsetti, A. Garcia, W. P. Huhn, M. Jacquelin, W. Jia,
    B. Lange, L. Lin, J. Lu, W. Mi, A. Seifitokaldani, A. Vazquez-Mayagoitia,
    C. Yang, H. Yang, and V. Blum
    'ELSI: A unified software interface for Kohn-Sham electronic structure solvers'
    Computer Physics Communications 222, 267-285 (2018).
    http://doi.org/10.1016/j.cpc.2017.09.007


  For the real-space grid partitioning and parallelization used in this calculation, please cite:

    Ville Havu, Volker Blum, Paula Havu, and Matthias Scheffler,
    'Efficient O(N) integration for all-electron electronic structure calculation'
    'using numerically tabulated basis functions'
    Journal of Computational Physics 228, 8367-8379 (2009).
    http://doi.org/10.1016/j.jcp.2009.08.008

  Of course, there are many other important community references, e.g., those cited in the
  above references. Our list is limited to references that describe implementations in the
  FHI-aims code. The reason is purely practical (length of this list) - please credit others as well.

------------------------------------------------------------
          Leaving FHI-aims.
          Date     :  20221003, Time     :  094630.865

          Computational steps:
          | Number of self-consistency cycles          :           32
          | Number of SCF (re)initializations          :            1
          | Number of coupled perturbed self-consistency cycles          :            0
          | Number of CPSCF (re)initializations          :            0

          Detailed time accounting                     :  max(cpu_time)    wall_clock(cpu1)
          | Total time                                  :       32.000 s          32.068 s
          | Preparation time                            :        0.132 s           0.167 s
          | Boundary condition initalization            :        0.048 s           0.046 s
          | Grid partitioning                           :        0.032 s           0.030 s
          | Preloading free-atom quantities on grid     :        0.124 s           0.119 s
          | Free-atom superposition energy              :        0.012 s           0.011 s
          | Total time for integrations                 :        1.208 s           1.189 s
          | Total time for solution of K.-S. equations  :        0.128 s           0.111 s
          | Total time for density update               :        2.104 s           2.084 s
          | Total time for mixing & preconditioning     :        1.212 s           1.163 s
          | Total time for Hartree multipole update     :        0.056 s           0.048 s
          | Total time for Hartree multipole sum        :        2.892 s           2.860 s
          | Total time for total energy evaluation      :        0.060 s           0.022 s
          | Total time first_order_DM                   :        0.096 s           0.079 s
          | Total time first_order_density              :        2.532 s           2.486 s
          | Total time first_order_potential            :        4.272 s           4.243 s
          | Total time first_order_H                    :       16.308 s          16.274 s
          | Total time solving of Sternheimer equations :        0.072 s           0.052 s
          | Total time for dielectric constant          :        0.000 s           0.001 s
          | Total time momentum matrix                  :        0.000 s           0.000 s

          Partial memory accounting:
          | Residual value for overall tracked memory usage across tasks:     0.000000 MB (should be 0.000000 MB)
          | Peak values for overall tracked memory usage:
          |   Minimum:        9.249 MB (on task  5 after allocating DFPT_pulay_mixing::pulay_mix::alphas)
          |   Maximum:        9.254 MB (on task  0 after allocating DFPT_pulay_mixing::pulay_mix::alphas)
          |   Average:        9.250 MB
          | Largest tracked array allocation:
          |   Minimum:        3.318 MB (DFPT_pulay_mixing::initialize_pulay_mixing::X_in_diffs on task  0)
          |   Maximum:        3.318 MB (DFPT_pulay_mixing::initialize_pulay_mixing::X_in_diffs on task  0)
          |   Average:        3.318 MB
          Note:  These values currently only include a subset of arrays which are explicitly tracked.
          The "true" memory usage will be greater.

          Have a nice day.
------------------------------------------------------------
