------------------------------------------------------------
          Invoking FHI-aims ...

          When using FHI-aims, please cite the following reference:

            Volker Blum, Ralf Gehrke, Felix Hanke, Paula Havu,
            Ville Havu, Xinguo Ren, Karsten Reuter, and Matthias Scheffler,
            'Ab Initio Molecular Simulations with Numeric Atom-Centered Orbitals',
            Computer Physics Communications 180, 2175-2196 (2009)

          In addition, many other developments in FHI-aims are likely important for
          your particular application. A partial list of references is given at the end of
          this file. Thank you for giving credit to the authors of these developments.

          For any questions about FHI-aims, please visit our slack channel at

            https://fhi-aims.slack.com

          and our main development and support site at

            https://aims-git.rz-berlin.mpg.de .

          The latter site, in particular, has a wiki to collect information, as well
          as an issue tracker to log discussions, suggest improvements, and report issues
          or bugs. https://aims-git.rz-berlin.mpg.de is also the main development site
          of the project and all new and updated code versions can be obtained there.
          Please send an email to aims-coordinators@fhi-berlin.mpg.de and we will add
          you to these sites. They are for you and everyone is welcome there.

------------------------------------------------------------



  Date     :  20221003, Time     :  092959.606
  Time zero on CPU 1             :   0.400000000000000E-01  s.
  Internal wall clock time zero  :           434021399.606  s.

  FHI-aims created a unique identifier for this run for later identification
  aims_uuid : A02AB813-D9B1-400E-A9A8-728F8CB7A9A5

  Build configuration of the current instance of FHI-aims
  -------------------------------------------------------
  FHI-aims version      : 220810
  Commit number         : eae8be818
  CMake host system     : Linux-4.9.0-16-amd64
  CMake version         : 3.17.3
  Fortran compiler      : /opt/easybuild/software/impi/2017.3.196-iccifort-2017.4.196-GCC-6.4.0-2.28/bin64/mpiifort (Intel) version 17.0.4.20170411
  Fortran compiler flags: -O3 -ip -fp-model precise
  C compiler            : /opt/easybuild/software/icc/2017.4.196-GCC-6.4.0-2.28/compilers_and_libraries_2017.4.196/linux/bin/intel64/icc (Intel) version 17.0.4.20170411
  C compiler flags      : -O3 -ip -fp-model precise -std=gnu99
  Using MPI
  Using ScaLAPACK
  Using LibXC
  Using i-PI
  Using RLSY
  Linking against: /opt/easybuild/software/imkl/2017.3.196-iimpi-2017b/mkl/lib/intel64/libmkl_intel_lp64.so
                   /opt/easybuild/software/imkl/2017.3.196-iimpi-2017b/mkl/lib/intel64/libmkl_sequential.so
                   /opt/easybuild/software/imkl/2017.3.196-iimpi-2017b/mkl/lib/intel64/libmkl_core.so
                   /opt/easybuild/software/imkl/2017.3.196-iimpi-2017b/mkl/lib/intel64/libmkl_blacs_intelmpi_lp64.so
                   /opt/easybuild/software/imkl/2017.3.196-iimpi-2017b/mkl/lib/intel64/libmkl_scalapack_lp64.so

  Using       16 parallel tasks.
  Task        0 on host mpsd-hpc-ibm-056 reporting.
  Task        1 on host mpsd-hpc-ibm-056 reporting.
  Task        2 on host mpsd-hpc-ibm-056 reporting.
  Task        3 on host mpsd-hpc-ibm-056 reporting.
  Task        4 on host mpsd-hpc-ibm-057 reporting.
  Task        5 on host mpsd-hpc-ibm-057 reporting.
  Task        6 on host mpsd-hpc-ibm-057 reporting.
  Task        7 on host mpsd-hpc-ibm-057 reporting.
  Task        8 on host mpsd-hpc-ibm-058 reporting.
  Task        9 on host mpsd-hpc-ibm-058 reporting.
  Task       10 on host mpsd-hpc-ibm-058 reporting.
  Task       11 on host mpsd-hpc-ibm-058 reporting.
  Task       12 on host mpsd-hpc-ibm-059 reporting.
  Task       13 on host mpsd-hpc-ibm-059 reporting.
  Task       14 on host mpsd-hpc-ibm-059 reporting.
  Task       15 on host mpsd-hpc-ibm-059 reporting.

  Performing system and environment tests:
  | Environment variable OMP_NUM_THREADS correctly set to 1.
  | Checking for ScaLAPACK...
  | Testing pdtran()...
  | All pdtran() tests passed.

  Obtaining array dimensions for all initial allocations:
  
  -----------------------------------------------------------------------
  Parsing control.in (first pass over file, find array dimensions only).
  The contents of control.in will be repeated verbatim below
  unless switched off by setting 'verbatim_writeout .false.' .
  in the first line of control.in .
  -----------------------------------------------------------------------
  
  #########################################################################################
  #
  #  Volker Blum, 2017 : Test run input file control.in for simple H2O
  #
  #########################################################################################
  #
  #  Physical model
  #
    xc                 pbe
    spin               none
    relativistic       none
    charge             0.
  
  #  ri_density_restart         write
  #  ri_rho1 write
  #  ri_full_output .True.
  #  ri_output_density_only .True.
    DFPT dielectric
    sc_accuracy_rho    1d-6
  #  use_calculate_fock_matrix_old .false.
  #  output cube total_density
    k_grid 1 1 1
    wave_threshold 1e-8
  
  # prodbas_threshold 1e-2
  #
  #  Relaxation
  #
  #  relax_geometry   bfgs 1.e-2
  #
  
  ################################################################################
  
  ################################################################################
  #
  #  FHI-aims code project
  #  VB, Fritz-Haber Institut, 2009
  #
  #  Suggested "light" defaults for O atom (to be pasted into control.in file)
  #  Be sure to double-check any results obtained with these settings for post-processing,
  #  e.g., with the "tight" defaults and larger basis sets.
  #
  ################################################################################
    species        O
  #     global species definitions
      nucleus             8
      mass                15.9994
  #
      l_hartree           6
  #
      cut_pot             4.0  2.0  1.0
      basis_dep_cutoff    1e-4
  #
      radial_base         36 7.0
      radial_multiplier   2
       angular_grids specified
        division   0.2659   50
        division   0.4451  110
        division   0.6052  194
        division   0.7543  302
        division   0.8014  434
  #      division   0.8507  590
  #      division   0.8762  770
  #      division   0.9023  974
  #      division   1.2339 1202
  #      outer_grid 974
        outer_grid 434
  ################################################################################
  #
  #  Definition of "minimal" basis
  #
  ################################################################################
  #     valence basis states
      valence      2  s   2.
      valence      2  p   4.
  #     ion occupancy
      ion_occ      2  s   1.
      ion_occ      2  p   3.
  ################################################################################
  #
  #  Suggested additional basis functions. For production calculations,
  #  uncomment them one after another (the most important basis functions are
  #  listed first).
  #
  #
  ################################################################################
  #  "First tier" - improvements: -699.05 meV to -159.38 meV
       hydro 2 p 1.8
       hydro 3 d 7.6
       hydro 3 s 6.4
  #  "Second tier" - improvements: -49.91 meV to -5.39 meV
       hydro 4 f 11.6
       hydro 3 p 6.2
       hydro 3 d 5.6
       hydro 5 g 17.6
       hydro 1 s 0.75
  #  "Third tier" - improvements: -2.83 meV to -0.50 meV
  #     ionic 2 p auto
  #     hydro 4 f 10.8
  #     hydro 4 d 4.7
  #     hydro 2 s 6.8
  #  "Fourth tier" - improvements: -0.40 meV to -0.12 meV
  #     hydro 3 p 5
  #     hydro 3 s 3.3
  #     hydro 5 g 15.6
  #     hydro 4 f 17.6
  #     hydro 4 d 14
  # Further basis functions - -0.08 meV and below
  #     hydro 3 s 2.1
  #     hydro 4 d 11.6
  #     hydro 3 p 16
  #     hydro 2 s 17.2
  ################################################################################
  #
  #  FHI-aims code project
  #  VB, Fritz-Haber Institut, 2009
  #
  #  Suggested "light" defaults for H atom (to be pasted into control.in file)
  #  Be sure to double-check any results obtained with these settings for post-processing,
  #  e.g., with the "tight" defaults and larger basis sets.
  #
  ################################################################################
    species        H
  #     global species definitions
      nucleus             1
      mass                1.00794
  #
      l_hartree           6
  #
      cut_pot             4.0  2.0  1.0
      basis_dep_cutoff    1e-4
  #
      radial_base         24 7.0
      radial_multiplier   2
      angular_grids       specified
        division   0.2421   50
        division   0.3822  110
        division   0.4799  194
        division   0.5341  302
        division   0.5626  434
  #      division   0.5922  590
  #      division   0.6542  770
  #      division   0.6868 1202
  #      outer_grid  770
        outer_grid  434
  ################################################################################
  #
  #  Definition of "minimal" basis
  #
  ################################################################################
  #     valence basis states
      valence      1  s   1.
  #     ion occupancy
      ion_occ      1  s   0.5
  ################################################################################
  #
  #  Suggested additional basis functions. For production calculations,
  #  uncomment them one after another (the most important basis functions are
  #  listed first).
  #
  #  Basis constructed for dimers: 0.5 A, 0.7 A, 1.0 A, 1.5 A, 2.5 A
  #
  ################################################################################
  #  "First tier" - improvements: -1014.90 meV to -62.69 meV
       hydro 2 s 2.1
       hydro 2 p 3.5
  #  "Second tier" - improvements: -12.89 meV to -1.83 meV
      hydro 1 s 0.85
      hydro 2 p 3.7
      hydro 2 s 1.2
      hydro 3 d 7
  #  "Third tier" - improvements: -0.25 meV to -0.12 meV
  #    hydro 4 f 11.2
  #    hydro 3 p 4.8
  #    hydro 4 d 9
  #    hydro 3 s 3.2
  #
  
  
  -----------------------------------------------------------------------
  Completed first pass over input file control.in .
  -----------------------------------------------------------------------
  
  
  -----------------------------------------------------------------------
  Parsing geometry.in (first pass over file, find array dimensions only).
  The contents of geometry.in will be repeated verbatim below
  unless switched off by setting 'verbatim_writeout .false.' .
  in the first line of geometry.in .
  -----------------------------------------------------------------------
  
  #=======================================================
  # FHI-aims file: qmdata/data/geoms/16.in
  # Created using the Atomic Simulation Environment (ASE)
  # Wed Sep 21 12:30:22 2022
  #=======================================================
  lattice_vector 5.0000000000000000 0.0000000000000000 0.0000000000000000
  lattice_vector 0.0000000000000000 5.0000000000000000 0.0000000000000000
  lattice_vector 0.0000000000000000 0.0000000000000000 5.0000000000000000
  atom 0.0663290400000000 0.0000000000000000 0.0037004200000000 O
  atom -0.5263880800000000 -0.7693269200000000 -0.0293665900000000 H
  atom -0.5263880500000000 0.7693268800000000 -0.0293665800000000 H
  
  -----------------------------------------------------------------------
  Completed first pass over input file geometry.in .
  -----------------------------------------------------------------------
  

  Basic array size parameters:
  | Number of species                 :        2
  | Number of atoms                   :        3
  | Number of lattice vectors         :        3
  | Max. basis fn. angular momentum   :        4
  | Max. atomic/ionic basis occupied n:        2
  | Max. number of basis fn. types    :        2
  | Max. radial fns per species/type  :        8
  | Max. logarithmic grid size        :     1301
  | Max. radial integration grid size :       73
  | Max. angular integration grid size:      434
  | Max. angular grid division number :        8
  | Radial grid for Hartree potential :     1301
  | Number of spin channels           :        1

------------------------------------------------------------
          Reading file control.in.
------------------------------------------------------------
  XC: Using PBE gradient-corrected functionals.
  Spin treatment: No spin polarisation.
  Non-relativistic treatment of kinetic energy.
  Charge =   0.000000E+00: Neutral system requested explicitly.
  DFPT calculation will begin after the DFT/HF calculation.
  Convergence accuracy of self-consistent charge density:  0.1000E-05
  Found k-point grid:         1         1         1
  Threshold value for wave function integration:  0.1000E-07
 
  Reading configuration options for species O                   .
  | Found nuclear charge :   8.0000
  | Found atomic mass :    15.9994000000000      amu
  | Found l_max for Hartree potential  :   6
  | Found cutoff potl. onset [A], width [A], scale factor :    4.00000    2.00000    1.00000
  | Threshold for basis-dependent cutoff potential is   0.100000E-03
  | Found data for basic radial integration grid :    36 points, outermost radius =    7.000 A
  | Found multiplier for basic radial grid :   2
  | Found angular grid specification: user-specified.
  | Specified grid contains     6 separate shells.
  | Check grid settings after all constraints further below.
  | Found free-atom valence shell :  2 s   2.000
  | Found free-atom valence shell :  2 p   4.000
  | No ionic wave fns used. Skipping ion_occ.
  | No ionic wave fns used. Skipping ion_occ.
  | Found hydrogenic basis function :  2 p   1.800
  | Found hydrogenic basis function :  3 d   7.600
  | Found hydrogenic basis function :  3 s   6.400
  | Found hydrogenic basis function :  4 f  11.600
  | Found hydrogenic basis function :  3 p   6.200
  | Found hydrogenic basis function :  3 d   5.600
  | Found hydrogenic basis function :  5 g  17.600
  | Found hydrogenic basis function :  1 s   0.750
  Species O                   : Missing cutoff potential type.
  Defaulting to exp(1/x)/(1-x)^2 type cutoff potential.
  Species O : No 'logarithmic' tag. Using default grid for free atom:
  | Default logarithmic grid data [bohr] : 0.1000E-03 0.1000E+03 0.1012E+01
  Species O : On-site basis accuracy parameter (for Gram-Schmidt orthonormalisation) not specified.
  Using default value basis_acc =  0.1000000E-03.
  Species O                   : Using default innermost maximum threshold i_radial=  2 for radial functions.
  Species O                   : Default cutoff onset for free atom density etc. : 0.40000000E+01 AA.
  Species O                   : Basic radial grid will be enhanced according to radial_multiplier =   2, to contain    73 grid points.
 
  Reading configuration options for species H                   .
  | Found nuclear charge :   1.0000
  | Found atomic mass :    1.00794000000000      amu
  | Found l_max for Hartree potential  :   6
  | Found cutoff potl. onset [A], width [A], scale factor :    4.00000    2.00000    1.00000
  | Threshold for basis-dependent cutoff potential is   0.100000E-03
  | Found data for basic radial integration grid :    24 points, outermost radius =    7.000 A
  | Found multiplier for basic radial grid :   2
  | Found angular grid specification: user-specified.
  | Specified grid contains     6 separate shells.
  | Check grid settings after all constraints further below.
  | Found free-atom valence shell :  1 s   1.000
  | No ionic wave fns used. Skipping ion_occ.
  | Found hydrogenic basis function :  2 s   2.100
  | Found hydrogenic basis function :  2 p   3.500
  | Found hydrogenic basis function :  1 s   0.850
  | Found hydrogenic basis function :  2 p   3.700
  | Found hydrogenic basis function :  2 s   1.200
  | Found hydrogenic basis function :  3 d   7.000
  Species H                   : Missing cutoff potential type.
  Defaulting to exp(1/x)/(1-x)^2 type cutoff potential.
  Species H : No 'logarithmic' tag. Using default grid for free atom:
  | Default logarithmic grid data [bohr] : 0.1000E-03 0.1000E+03 0.1012E+01
  Species H : On-site basis accuracy parameter (for Gram-Schmidt orthonormalisation) not specified.
  Using default value basis_acc =  0.1000000E-03.
  Species H                   : Using default innermost maximum threshold i_radial=  2 for radial functions.
  Species H                   : Default cutoff onset for free atom density etc. : 0.40000000E+01 AA.
  Species H                   : Basic radial grid will be enhanced according to radial_multiplier =   2, to contain    49 grid points.
 
  Finished reading input file 'control.in'.
 
------------------------------------------------------------


------------------------------------------------------------
          Reading geometry description geometry.in.
------------------------------------------------------------
  | The smallest distance between any two atoms is         0.97173598 AA.
  | The first atom of this pair is atom number                      1 .
  | The second atom of this pair is atom number                     3 .
  | Wigner-Seitz cell of the first atom image           0     0     0 .
  | (The Wigner-Seitz cell of the second atom is 0 0 0  by definition.)

  Symmetry information by spglib:
  | Precision set to  0.1E-04
  | Number of Operations  : 2
  | Space group           : 6
  | International         : Pm  d
  | Schoenflies           : Cs^1
  Input structure read successfully.
  The structure contains        3 atoms,  and a total of         10.000 electrons.

  Input geometry:
  | Unit cell:
  |        5.00000000        0.00000000        0.00000000
  |        0.00000000        5.00000000        0.00000000
  |        0.00000000        0.00000000        5.00000000
  | Atomic structure:
  |       Atom                x [A]            y [A]            z [A]
  |    1: Species O             0.06632904        0.00000000        0.00370042
  |    2: Species H            -0.52638808       -0.76932692       -0.02936659
  |    3: Species H            -0.52638805        0.76932688       -0.02936658

  Lattice parameters for 3D lattice (in Angstroms) :     5.000000    5.000000    5.000000
  Angle(s) between unit vectors (in degrees)       :    90.000000   90.000000   90.000000


  Quantities derived from the lattice vectors (in Angstrom^-1):
  | Reciprocal lattice vector 1:  1.256637  0.000000  0.000000
  | Reciprocal lattice vector 2:  0.000000  1.256637  0.000000
  | Reciprocal lattice vector 3:  0.000000  0.000000  1.256637
  | Unit cell volume                               :   0.125000E+03  Angstrom^3

  Fractional coordinates:
                         L1                L2                L3
       atom_frac         0.01326581        0.00000000        0.00074008  O
       atom_frac        -0.10527762       -0.15386538       -0.00587332  H
       atom_frac        -0.10527761        0.15386538       -0.00587332  H

 
  Finished reading input file 'geometry.in'.
 

 
  Consistency checks for stacksize environment parameter are next.
 
  | Maximum stacksize for task 0: unlimited
  | Maximum stacksize for task 1: unlimited
  | Maximum stacksize for task 2: unlimited
  | Maximum stacksize for task 3: unlimited
  | Maximum stacksize for task 4: unlimited
  | Maximum stacksize for task 5: unlimited
  | Maximum stacksize for task 6: unlimited
  | Maximum stacksize for task 7: unlimited
  | Maximum stacksize for task 8: unlimited
  | Maximum stacksize for task 9: unlimited
  | Maximum stacksize for task 10: unlimited
  | Maximum stacksize for task 11: unlimited
  | Maximum stacksize for task 12: unlimited
  | Maximum stacksize for task 13: unlimited
  | Maximum stacksize for task 14: unlimited
  | Maximum stacksize for task 15: unlimited
  | Current stacksize for task 0: unlimited
  | Current stacksize for task 1: unlimited
  | Current stacksize for task 2: unlimited
  | Current stacksize for task 3: unlimited
  | Current stacksize for task 4: unlimited
  | Current stacksize for task 5: unlimited
  | Current stacksize for task 6: unlimited
  | Current stacksize for task 7: unlimited
  | Current stacksize for task 8: unlimited
  | Current stacksize for task 9: unlimited
  | Current stacksize for task 10: unlimited
  | Current stacksize for task 11: unlimited
  | Current stacksize for task 12: unlimited
  | Current stacksize for task 13: unlimited
  | Current stacksize for task 14: unlimited
  | Current stacksize for task 15: unlimited
 
  Consistency checks for the contents of control.in are next.
 
  MPI_IN_PLACE appears to work with this MPI implementation.
  | Keeping use_mpi_in_place .true. (see manual).
  Target number of points in a grid batch is not set. Defaulting to  100
  Method for grid partitioning is not set. Defaulting to parallel hash+maxmin partitioning.
  Batch size limit is not set. Defaulting to    200
  By default, will store active basis functions for each batch.
  If in need of memory, prune_basis_once .false. can be used to disable this option.
  communication_type for Hartree potential was not specified.
  Defaulting to calc_hartree .
  Defaulting to Pulay charge density mixer.
  Pulay mixer: Number of relevant iterations not set.
  Defaulting to    8 iterations.
  Pulay mixer: Number of initial linear mixing iterations not set.
  Defaulting to    0 iterations.
  Work space size for distributed Hartree potential not set.
  Defaulting to   0.200000E+03 MB.
  Mixing parameter for charge density mixing has not been set.
  Using default: charge_mix_param =     0.0500.
  The mixing parameter will be adjusted in iteration number     2 of the first full s.c.f. cycle only.
  Algorithm-dependent basis array size parameters:
  | n_max_pulay                         :        8
  Maximum number of self-consistency iterations not provided.
  Presetting  1000 iterations.
  Presetting      1001 iterations before the initial mixing cycle
  is restarted anyway using the sc_init_iter criterion / keyword.
  Presetting a factor      1.000 between actual scf density residual
  and density convergence criterion sc_accuracy_rho below which sc_init_iter
  takes no effect.
  Calculation of forces was not defined in control.in. No forces will be calculated.
  Geometry relaxation not requested: no relaxation will be performed.
  No accuracy limit for integral partition fn. given. Defaulting to  0.1000E-14.
  No occupation type (smearing scheme) given. Defaulting to Gaussian broadening, width =  0.1000E-01 eV.
  The width will be adjusted in iteration number     2 of the first full s.c.f. cycle only.
  S.C.F. convergence parameters will be adjusted in iteration number     2 of the first full s.c.f. cycle only.
  No accuracy for occupation numbers given. Defaulting to  0.1000E-12.
  No threshold value for occupation numbers given. Defaulting to  0.0000E+00.
  No accuracy for fermi level given. Defaulting to  0.1000E-19.
  Maximum # of iterations to find E_F not set. Defaulting to  200.
  Preferred method for the eigenvalue solver ('KS_method') not specified in 'control.in'.
  Calling BLACS routine to test compilation state
  Since ScaLAPACK support is enabled, defaulting to ELPA (via ELSI).
  Will not use alltoall communication since running on < 1024 CPUs.
  Threshold for basis singularities not set.
  Default threshold for basis singularities:  0.1000E-04
  partition_type (choice of integration weights) for integrals was not specified.
  | Using a version of the partition function of Stratmann and coworkers ('stratmann_sparse').
  | At each grid point, the set of atoms used to build the partition table is smoothly restricted to
  | only those atoms whose free-atom density would be non-zero at that grid point.
  Partitioning for Hartree potential was not defined. Using partition_type for integrals.
  | Adjusted default value of keyword multip_moments_threshold to:       0.10000000E-11
  | This value may affect high angular momentum components of the Hartree potential in periodic systems.
  Angular momentum expansion for Kerker preconditioner not set explicitly.
  | Using default value of   0
  No explicit requirement for turning off preconditioner.
  | By default, it will be turned off when the charge convergence reaches
  | sc_accuracy_rho  =   0.100000E-05
  No special mixing parameter while Kerker preconditioner is on.
  Using default: charge_mix_param =     0.0500.
  No q(lm)/r^(l+1) cutoff set for long-range Hartree potential.
  | Using default value of  0.100000E-09 .
  | Verify using the multipole_threshold keyword.
  Defaulting to new monopole extrapolation.
  Density update method: automatic selection selected.
  Using density matrix based charge density update.
  Using density matrix based charge density update.
  Using packed matrix style: index .
  Defaulting to use time-reversal symmetry for k-point grid.
  Charge integration errors on the 3D integration grid will be compensated
  by explicit normalization and distribution of residual charges.
  Use the "compensate_multipole_errors" flag to change this behaviour.
 
  Consistency checks for the contents of geometry.in are next.
 

  Range separation radius for Ewald summation (hartree_convergence_parameter):      5.00000000 bohr.
  Number of empty states per atom not set in control.in .
  | Since you are using a method that relies on the unoccupied spectrum
  | (MP2,GW,RPA et al.), will use the full Hamiltonian size (see below)
  | as the max. possible number of states (occupied plus empty).

  Structure-dependent array size parameters: 
  | Maximum number of distinct radial functions  :       18
  | Maximum number of basis functions            :       69
  | Number of Kohn-Sham states (occupied + empty):       69
------------------------------------------------------------

------------------------------------------------------------
          Preparing all fixed parts of the calculation.
------------------------------------------------------------
  Determining machine precision:
    2.225073858507201E-308
  Setting up grids for atomic and cluster calculations.

  Creating wave function, potential, and density for free atoms.
  Runtime choices for atomic solver:
  | atomic solver xc        : PBE
  | compute density gradient: 1
  | compute kinetic density : F

  Species: O

  List of occupied orbitals and eigenvalues:
    n    l              occ      energy [Ha]    energy [eV]
    1    0           2.0000       -18.898576      -514.2564
    2    0           2.0000        -0.878795       -23.9132
    2    1           4.0000        -0.332075        -9.0362


  Species: H

  List of occupied orbitals and eigenvalues:
    n    l              occ      energy [Ha]    energy [eV]
    1    0           1.0000        -0.238382        -6.4867


  Adding cutoff potential to free-atom effective potential.
  Creating fixed part of basis set: Ionic, confined, hydrogenic.
 
  O                    hydrogenic:
 
  List of hydrogenic basis orbitals: 
    n    l      effective z      eigenvalue [eV]  inner max. [A]     outer max. [A]     outer radius [A]   
    2    1         1.800000       -11.0118           1.178562           1.178562           5.567066
    3    2         7.600000       -87.3182           0.624125           0.624125           3.764702
    3    0         6.400000       -61.9209           0.061167           1.081902           4.522403
    4    3        11.600000      -114.4238           0.731631           0.731631           3.811008
    3    1         6.200000       -58.1113           0.255680           1.030270           4.522403
    3    2         5.600000       -47.4081           0.847233           0.847233           4.578029
    5    4        17.600000      -168.5799           0.749740           0.749740           3.629133
    1    0         0.750000        -7.6499           0.705284           0.705284           5.567066
 
 
  H                    hydrogenic:
 
  List of hydrogenic basis orbitals: 
    n    l      effective z      eigenvalue [eV]  inner max. [A]     outer max. [A]     outer radius [A]   
    2    0         2.100000       -14.9965           0.193243           1.317208           5.573719
    2    1         3.500000       -41.6672           0.602369           0.602369           4.259334
    1    0         0.850000        -9.8292           0.624871           0.624871           5.573719
    2    1         3.700000       -46.5653           0.573622           0.573622           4.105953
    2    0         1.200000        -4.5995           0.334980           2.228188           5.642276
    3    2         7.000000       -74.0753           0.680699           0.680699           3.958095
 
  Creating atomic-like basis functions for current effective potential.

  Species O                   :

  List of atomic basis orbitals and eigenvalues:
    n    l      energy [Ha]    energy [eV]    outer radius [A]
    1    0       -18.898576      -514.2564       1.807907
    2    0        -0.878795       -23.9132       5.366593
    2    1        -0.332075        -9.0362       5.499423


  Species H                   :

  List of atomic basis orbitals and eigenvalues:
    n    l      energy [Ha]    energy [eV]    outer radius [A]
    1    0        -0.238382        -6.4867       5.573719

  Assembling full basis from fixed parts.
  | Species O :   atomic orbital   1 s accepted.
  | Species O :    hydro orbital   3 s accepted.
  | Species O :   atomic orbital   2 s accepted.
  | Species O :    hydro orbital   1 s accepted.
  | Species O :    hydro orbital   3 p accepted.
  | Species O :   atomic orbital   2 p accepted.
  | Species O :    hydro orbital   2 p accepted.
  | Species O :    hydro orbital   3 d accepted.
  | Species O :    hydro orbital   3 d accepted.
  | Species O :    hydro orbital   4 f accepted.
  | Species O :    hydro orbital   5 g accepted.
  | Species H :   atomic orbital   1 s accepted.
  | Species H :    hydro orbital   2 s accepted.
  | Species H :    hydro orbital   1 s accepted.
  | Species H :    hydro orbital   2 s accepted.
  | Species H :    hydro orbital   2 p accepted.
  | Species H :    hydro orbital   2 p accepted.
  | Species H :    hydro orbital   3 d accepted.
 
  Basis size parameters after reduction:
  | Total number of radial functions:       18
  | Total number of basis functions :       69
 
  Per-task memory consumption for arrays in subroutine allocate_ext:
  |           4.499020MB.
  Testing on-site integration grid accuracy.
  |  Species  Function  <phi|h_atom|phi> (log., in eV)  <phi|h_atom|phi> (rad., in eV)
           1        1               -514.2564144315               -514.2564099626
           1        2                 15.1726678541                 15.1726530877
           1        3                -21.5447785304                -21.5447874973
           1        4                 14.4944558459                 14.4944698284
           1        5                 20.8882174564                 20.8882178906
           1        6                 -2.4850315909                 -2.4850322289
           1        7                 13.8600193195                 13.8599826966
           1        8                 45.8243383616                 45.8243383675
           1        9                 52.1840606465                 52.1840622440
           1       10                 85.4074185510                 85.4074185819
           1       11                142.0983717302                142.0983717339
           2       12                 -6.4869821809                 -6.4870742227
           2       13                 13.5044133542                 13.5041049177
           2       14                 32.7854418792                 32.7779770519
           2       15                 33.7995553101                 33.7152624900 ***
           2       16                 28.8558651799                 28.8558652046
           2       17                 59.6361831893                 59.6362535845
           2       18                 60.2733718049                 60.2733715484
 * Note: Onsite integrals marked "***" above are less accurate than
 * onsite_accuracy_threshold =    0.03000 eV. Usually, this is harmless.
 * When in doubt, tighten the "radial" and/or "radial_multiplier" flags to check.

  Preparing densities etc. for the partition functions (integrals / Hartree potential).

  Preparations completed.
  max(cpu_time)          :      0.148 s.
  Wall clock time (cpu1) :      0.159 s.
------------------------------------------------------------

  Initializing index lists of integration centers etc. from given atomic structure:
  Mapping all atomic coordinates to central unit cell.

  Initializing the k-points
  Using symmetry for reducing the k-points
  | k-points reduced from:        1 to        1
  | Number of k-points                             :         1
  | Consuming          0 KiB for k_phase_exx.
  The eigenvectors in the calculations are REAL.
  | Number of basis functions in the Hamiltonian integrals :      1567
  | Number of basis functions in a single unit cell        :        69
  | Number of centers in hartree potential         :       657
  | Number of centers in hartree multipole         :       243
  | Number of centers in electron density summation:       191
  | Number of centers in basis integrals           :       207
  | Number of centers in integrals                 :        81
  | Number of centers in hamiltonian               :       191
  | Consuming          1 KiB for k_phase.
  | Number of super-cells (origin) [n_cells]                     :        1331
  | Number of super-cells (after PM_index) [n_cells]             :          74
  | Number of super-cells in hamiltonian [n_cells_in_hamiltonian]:          74
  | Size of matrix packed + index [n_hamiltonian_matrix_size] :       62640
  | Size of matrix packed + index (no_symmetry):      123282

------------------------------------------------------------
          Begin self-consistency loop: Initialization.

          Date     :  20221003, Time     :  092959.931
------------------------------------------------------------
  | Estimated reciprocal-space cutoff momentum G_max:         1.90186217 bohr^-1 .
  | Reciprocal lattice points for long-range Hartree potential:      92
  Using simple linear distribution as default method for k-point parallelism.
  * Using 16 tasks for Scalapack Eigenvalue solver.
  Detailed listing of tasks and assigned k-points:
   Task     0 k-point     1 on mpsd-hpc-ibm-056
   Task     1 k-point     1 on mpsd-hpc-ibm-056
   Task     2 k-point     1 on mpsd-hpc-ibm-056
   Task     3 k-point     1 on mpsd-hpc-ibm-056
   Task     4 k-point     1 on mpsd-hpc-ibm-057
   Task     5 k-point     1 on mpsd-hpc-ibm-057
   Task     6 k-point     1 on mpsd-hpc-ibm-057
   Task     7 k-point     1 on mpsd-hpc-ibm-057
   Task     8 k-point     1 on mpsd-hpc-ibm-058
   Task     9 k-point     1 on mpsd-hpc-ibm-058
   Task    10 k-point     1 on mpsd-hpc-ibm-058
   Task    11 k-point     1 on mpsd-hpc-ibm-058
   Task    12 k-point     1 on mpsd-hpc-ibm-059
   Task    13 k-point     1 on mpsd-hpc-ibm-059
   Task    14 k-point     1 on mpsd-hpc-ibm-059
   Task    15 k-point     1 on mpsd-hpc-ibm-059
  K-point:     1 Tasks:    16 split into      4 X      4 BLACS grid
  Calculating block size based on n_basis =           69  max_nprow =            4  max_npcol =            4
  ScaLAPACK block size set to:           16
  Allocating        0.003 MB for ovlp
  Allocating        0.003 MB for ham
  Allocating        0.003 MB for eigenvec
  Required Scalapack workspace - INTEGER:            1  REAL:             1
  Partitioning the integration grid into batches with parallel hashing+maxmin method.
  | Number of batches:      508
  | Maximal batch size:     166
  | Minimal batch size:      50
  | Average batch size:      92.303
  | Standard deviation of batch sizes:      24.101

  Integration load balanced across    16 MPI tasks.
  Work distribution over tasks is as follows:
  Task     0 has       2916 integration points.
  Task     1 has       2903 integration points.
  Task     2 has       2941 integration points.
  Task     3 has       2907 integration points.
  Task     4 has       2922 integration points.
  Task     5 has       2915 integration points.
  Task     6 has       2923 integration points.
  Task     7 has       2988 integration points.
  Task     8 has       2952 integration points.
  Task     9 has       2956 integration points.
  Task    10 has       2909 integration points.
  Task    11 has       2899 integration points.
  Task    12 has       2959 integration points.
  Task    13 has       2950 integration points.
  Task    14 has       2903 integration points.
  Task    15 has       2947 integration points.
  Initializing partition tables, free-atom densities, potentials, etc. across the integration grid (initialize_grid_storage).
  | initialize_grid_storage: Actual outermost partition radius vs. multipole_radius_free
  | (-- VB: in principle, multipole_radius_free should be larger, hence this output)
  | Species        1: Confinement radius =              6.000000000000000 AA, multipole_radius_free =              6.064445521808699 AA.
  | Species        1: outer_partition_radius set to              6.064445521808699 AA .
  | Species        2: Confinement radius =              6.000000000000000 AA, multipole_radius_free =              6.071692442739658 AA.
  | Species        2: outer_partition_radius set to              6.071692442739658 AA .
  | The sparse table of interatomic distances needs        416.27 kbyte instead of       342.79 kbyte of memory.
  | Using the partition_type stratmann_smoother will reduce your memory usage.
  | Net number of integration points:    46890
  | of which are non-zero points    :    37570
  | Numerical average free-atom electrostatic potential    :     -1.29049423 eV
  Renormalizing the initial density to the exact electron count on the 3D integration grid.
  | Initial density: Formal number of electrons (from input files) :      10.0000000000
  | Integrated number of electrons on 3D grid     :      10.0000061253
  | Charge integration error                      :       0.0000061253
  | Normalization factor for density and gradient :       0.9999993875
  Renormalizing the free-atom superposition density to the exact electron count on the 3D integration grid.
  | Formal number of electrons (from input files) :      10.0000000000
  | Integrated number of electrons on 3D grid     :      10.0000061253
  | Charge integration error                      :       0.0000061253
  | Normalization factor for density and gradient :       0.9999993875
  Obtaining max. number of non-zero basis functions in each batch (get_n_compute_maxes).
  | Maximal number of non-zero basis functions:      383 in task     0
  | Maximal number of non-zero basis functions:      395 in task     1
  | Maximal number of non-zero basis functions:      355 in task     2
  | Maximal number of non-zero basis functions:      431 in task     3
  | Maximal number of non-zero basis functions:      378 in task     4
  | Maximal number of non-zero basis functions:      431 in task     5
  | Maximal number of non-zero basis functions:      355 in task     6
  | Maximal number of non-zero basis functions:      390 in task     7
  | Maximal number of non-zero basis functions:      431 in task     8
  | Maximal number of non-zero basis functions:      378 in task     9
  | Maximal number of non-zero basis functions:      377 in task    10
  | Maximal number of non-zero basis functions:      347 in task    11
  | Maximal number of non-zero basis functions:      431 in task    12
  | Maximal number of non-zero basis functions:      390 in task    13
  | Maximal number of non-zero basis functions:      345 in task    14
  | Maximal number of non-zero basis functions:      383 in task    15
  Integrating Hamiltonian matrix: batch-based integration.
  Time summed over all CPUs for integration: real work        1.048 s, elapsed        1.140 s
  Integrating overlap matrix.
  Time summed over all CPUs for integration: real work        0.639 s, elapsed        1.028 s
  Deallocating overlap matrix.

  Updating Kohn-Sham eigenvalues and eigenvectors using ELSI and the ELPA eigensolver.
  Singularity check in k-point 1 (analysis for other k-points may follow below):
  Overlap matrix is not singular
  | Lowest and highest eigenvalues :  0.2542E-03,  0.6946E+01
  Finished singularity check of overlap matrix
  | Time :     0.004 s
  Starting ELPA eigensolver
  Finished Cholesky decomposition
  | Time :     0.002 s
  Finished transformation to standard eigenproblem
  | Time :     0.001 s
  Finished solving standard eigenproblem
  | Time :     0.004 s
  Finished back-transformation of eigenvectors
  | Time :     0.000 s

  Obtaining occupation numbers and electronic chemical potential using ELSI.
  | Note that, for insulating systems, the printed 'chemical potential' value is not uniquely defined.
  | It can be anywhere in the energy gap, as long as it correctly separates occupied and unoccupied states.
  | In systems with a gap, the physically relevant chemical potential is the VBM or HOMO.

  | Chemical potential (Fermi level):   -11.14493311 eV
  Writing Kohn-Sham eigenvalues.

  State    Occupation    Eigenvalue [Ha]    Eigenvalue [eV]
      1       2.00000         -19.004382         -517.13554
      2       2.00000          -1.094985          -29.79606
      3       2.00000          -0.627088          -17.06393
      4       2.00000          -0.508427          -13.83501
      5       2.00000          -0.436487          -11.87741
      6       0.00000          -0.113921           -3.09994
      7       0.00000           0.057939            1.57660
      8       0.00000           0.084925            2.31092
      9       0.00000           0.187306            5.09685
     10       0.00000           0.201370            5.47955
     11       0.00000           0.205564            5.59368
     12       0.00000           0.330598            8.99602
     13       0.00000           0.429890           11.69791
     14       0.00000           0.438671           11.93683
     15       0.00000           0.448564           12.20603
     16       0.00000           0.516467           14.05379
     17       0.00000           0.590423           16.06623
     18       0.00000           0.607757           16.53790
     19       0.00000           0.892422           24.28404
     20       0.00000           0.941459           25.61840
     21       0.00000           1.069050           29.09032
     22       0.00000           1.078876           29.35771
     23       0.00000           1.091454           29.69998
     24       0.00000           1.133821           30.85284
     25       0.00000           1.381496           37.59242
     26       0.00000           1.401231           38.12945
     27       0.00000           1.431575           38.95514
     28       0.00000           1.745895           47.50821
     29       0.00000           2.092175           56.93099
     30       0.00000           2.156550           58.68272
     31       0.00000           2.158240           58.72869
     32       0.00000           2.265920           61.65882
     33       0.00000           2.329260           63.38238
     34       0.00000           2.463394           67.03235
     35       0.00000           2.668844           72.62294
     36       0.00000           2.691552           73.24085
     37       0.00000           2.786488           75.82421
     38       0.00000           2.830383           77.01863
     39       0.00000           3.008973           81.87833
     40       0.00000           3.147668           85.65241
     41       0.00000           3.331946           90.66687
     42       0.00000           3.343498           90.98121
     43       0.00000           3.447562           93.81294
     44       0.00000           3.518070           95.73156
     45       0.00000           3.663073           99.67728
     46       0.00000           3.668886           99.83547
     47       0.00000           3.810119          103.67861
     48       0.00000           3.984133          108.41376
     49       0.00000           4.098366          111.52222
     50       0.00000           4.212943          114.64002
     51       0.00000           4.301574          117.05178
     52       0.00000           5.109933          139.04834
     53       0.00000           5.190402          141.23802
     54       0.00000           5.325087          144.90298
     55       0.00000           5.337364          145.23705
     56       0.00000           5.482369          149.18286
     57       0.00000           5.539919          150.74886
     58       0.00000           5.729202          155.89953
     59       0.00000           5.756223          156.63479
     60       0.00000           6.110811          166.28361
     61       0.00000           6.243777          169.90182
     62       0.00000           6.951454          189.15869
     63       0.00000           7.045086          191.70654
     64       0.00000           7.288172          198.32126
     65       0.00000           7.292626          198.44246
     66       0.00000           7.452843          202.80217
     67       0.00000           7.639785          207.88913
     68       0.00000           8.353115          227.29982
     69       0.00000           8.671619          235.96676

  Highest occupied state (VBM) at    -11.87741145 eV (relative to internal zero)
  | Occupation number:      2.00000000
  | K-point:       1 at    0.000000    0.000000    0.000000 (in units of recip. lattice)

  Lowest unoccupied state (CBM) at    -3.09993559 eV (relative to internal zero)
  | Occupation number:      0.00000000
  | K-point:       1 at    0.000000    0.000000    0.000000 (in units of recip. lattice)

  ESTIMATED overall HOMO-LUMO gap:      8.77747586 eV between HOMO at k-point 1 and LUMO at k-point 1
  The gap value is above 0.2 eV. Unless you are using a very sparse k-point grid,
  this system is most likely an insulator or a semiconductor.
  Calculating total energy contributions from superposition of free atom densities.

  Total energy components:
  | Sum of eigenvalues            :         -43.34273777 Ha       -1179.41590286 eV
  | XC energy correction          :          -9.01205902 Ha        -245.23060306 eV
  | XC potential correction       :          11.58737827 Ha         315.30860556 eV
  | Free-atom electrostatic energy:         -35.69288276 Ha        -971.25275669 eV
  | Hartree energy correction     :           0.00000000 Ha           0.00000000 eV
  | Entropy correction            :           0.00000000 Ha           0.00000000 eV
  | ---------------------------
  | Total energy                  :         -76.46030128 Ha       -2080.59065706 eV
  | Total energy, T -> 0          :         -76.46030128 Ha       -2080.59065706 eV  <-- do not rely on this value for anything but (periodic) metals
  | Electronic free energy        :         -76.46030128 Ha       -2080.59065706 eV

  Derived energy quantities:
  | Kinetic energy                :          75.52284385 Ha        2055.08114241 eV
  | Electrostatic energy          :        -142.97108611 Ha       -3890.44119640 eV
  | Energy correction for multipole
  | error in Hartree potential    :           0.00000000 Ha           0.00000000 eV
  | Sum of eigenvalues per atom                           :        -393.13863429 eV
  | Total energy (T->0) per atom                          :        -693.53021902 eV  <-- do not rely on this value for anything but (periodic) metals
  | Electronic free energy per atom                       :        -693.53021902 eV
  Initialize hartree_potential_storage
  Max. number of atoms included in rho_multipole:            3

  End scf initialization - timings             :  max(cpu_time)    wall_clock(cpu1)
  | Time for scf. initialization                :        0.304 s           0.303 s
  | Boundary condition initialization           :        0.048 s           0.047 s
  | Integration                                 :        0.144 s           0.144 s
  | Solution of K.-S. eqns.                     :        0.032 s           0.029 s
  | Grid partitioning                           :        0.032 s           0.030 s
  | Preloading free-atom quantities on grid     :        0.084 s           0.078 s
  | Free-atom superposition energy              :        0.012 s           0.011 s
  | Total energy evaluation                     :        0.004 s           0.002 s

  Partial memory accounting:
  | Current value for overall tracked memory usage:
  |   Minimum:        0.723 MB (on task  5)
  |   Maximum:        0.728 MB (on task  0)
  |   Average:        0.724 MB
  | Peak value for overall tracked memory usage:
  |   Minimum:        3.428 MB (on task 14 after allocating wave)
  |   Maximum:        4.268 MB (on task  3 after allocating wave)
  |   Average:        3.835 MB
  | Largest tracked array allocation so far:
  |   Minimum:        0.908 MB (hamiltonian_shell on task 14)
  |   Maximum:        1.417 MB (hamiltonian_shell on task  3)
  |   Average:        1.152 MB
  Note:  These values currently only include a subset of arrays which are explicitly tracked.
  The "true" memory usage will be greater.
------------------------------------------------------------
  Evaluating new KS density using the density matrix
  Evaluating density matrix
  Finished density matrix calculation
  | Time :     0.000 s
  Time summed over all CPUs for getting density from density matrix: real work        2.120 s, elapsed        2.458 s
  Integration grid: deviation in total charge (<rho> - N_e) =   1.065814E-14

  Time for density update prior                :  max(cpu_time)    wall_clock(cpu1)
  | self-consistency iterative process          :        0.160 s           0.157 s

------------------------------------------------------------
          Begin self-consistency iteration #    1

  Date     :  20221003, Time     :  093000.394
------------------------------------------------------------
  Pulay mixing of updated and previous charge densities.
  Renormalizing the density to the exact electron count on the 3D integration grid.
  | Formal number of electrons (from input files) :      10.0000000000
  | Integrated number of electrons on 3D grid     :       9.9996496372
  | Charge integration error                      :      -0.0003503628
  | Normalization factor for density and gradient :       1.0000350375

  Evaluating partitioned Hartree potential by multipole expansion.
  | Original multipole sum: apparent total charge =  -0.119914E-15
  | Sum of charges compensated after spline to logarithmic grids =   0.900140E-07
  | Analytical far-field extrapolation by fixed multipoles:
  | Hartree multipole sum: apparent total charge =  -0.127601E-15
  Summing up the Hartree potential.
  Time summed over all CPUs for potential: real work        2.459 s, elapsed        2.599 s
  | RMS charge density error from multipole expansion :   0.117456E-03
  | Average real-space part of the electrostatic potential :      0.00957439 eV

  Integrating Hamiltonian matrix: batch-based integration.
  Time summed over all CPUs for integration: real work        1.124 s, elapsed        1.277 s

  Updating Kohn-Sham eigenvalues and eigenvectors using ELSI and the ELPA eigensolver.
  Starting ELPA eigensolver
  Finished transformation to standard eigenproblem
  | Time :     0.001 s
  Finished solving standard eigenproblem
  | Time :     0.017 s
  Finished back-transformation of eigenvectors
  | Time :     0.000 s

  Obtaining occupation numbers and electronic chemical potential using ELSI.
  | Note that, for insulating systems, the printed 'chemical potential' value is not uniquely defined.
  | It can be anywhere in the energy gap, as long as it correctly separates occupied and unoccupied states.
  | In systems with a gap, the physically relevant chemical potential is the VBM or HOMO.

  | Chemical potential (Fermi level):   -10.67703067 eV
  Writing Kohn-Sham eigenvalues.

  State    Occupation    Eigenvalue [Ha]    Eigenvalue [eV]
      1       2.00000         -18.974482         -516.32191
      2       2.00000          -1.081133          -29.41914
      3       2.00000          -0.615263          -16.74215
      4       2.00000          -0.494290          -13.45031
      5       2.00000          -0.421636          -11.47329
      6       0.00000          -0.112467           -3.06039
      7       0.00000           0.062096            1.68973
      8       0.00000           0.087633            2.38461
      9       0.00000           0.190482            5.18328
     10       0.00000           0.203031            5.52476
     11       0.00000           0.208136            5.66368
     12       0.00000           0.332688            9.05291
     13       0.00000           0.432407           11.76639
     14       0.00000           0.441517           12.01429
     15       0.00000           0.451416           12.28364
     16       0.00000           0.520104           14.15274
     17       0.00000           0.594453           16.17589
     18       0.00000           0.610071           16.60089
     19       0.00000           0.893844           24.32274
     20       0.00000           0.944690           25.70632
     21       0.00000           1.073204           29.20337
     22       0.00000           1.082740           29.46287
     23       0.00000           1.096249           29.83044
     24       0.00000           1.140312           31.02946
     25       0.00000           1.387003           37.74228
     26       0.00000           1.410299           38.37619
     27       0.00000           1.442648           39.25646
     28       0.00000           1.752900           47.69883
     29       0.00000           2.097106           57.06516
     30       0.00000           2.162257           58.83802
     31       0.00000           2.163659           58.87615
     32       0.00000           2.273789           61.87296
     33       0.00000           2.333906           63.50881
     34       0.00000           2.472549           67.28148
     35       0.00000           2.673379           72.74635
     36       0.00000           2.697756           73.40968
     37       0.00000           2.792546           75.98905
     38       0.00000           2.833593           77.10599
     39       0.00000           3.020285           82.18613
     40       0.00000           3.157313           85.91487
     41       0.00000           3.337617           90.82119
     42       0.00000           3.351256           91.19232
     43       0.00000           3.454103           93.99093
     44       0.00000           3.523921           95.89076
     45       0.00000           3.672831           99.94281
     46       0.00000           3.674309           99.98305
     47       0.00000           3.817387          103.87639
     48       0.00000           3.995231          108.71576
     49       0.00000           4.100963          111.59289
     50       0.00000           4.222458          114.89893
     51       0.00000           4.311704          117.32744
     52       0.00000           5.119022          139.29569
     53       0.00000           5.198073          141.44677
     54       0.00000           5.333141          145.12216
     55       0.00000           5.345713          145.46425
     56       0.00000           5.488233          149.34242
     57       0.00000           5.549123          150.99933
     58       0.00000           5.737367          156.12171
     59       0.00000           5.765260          156.88071
     60       0.00000           6.120300          166.54184
     61       0.00000           6.253658          170.17069
     62       0.00000           6.959775          189.38510
     63       0.00000           7.051866          191.89104
     64       0.00000           7.299405          198.62691
     65       0.00000           7.303769          198.74566
     66       0.00000           7.464112          203.10881
     67       0.00000           7.650851          208.19025
     68       0.00000           8.363747          227.58913
     69       0.00000           8.682609          236.26582

  Highest occupied state (VBM) at    -11.47328736 eV (relative to internal zero)
  | Occupation number:      2.00000000
  | K-point:       1 at    0.000000    0.000000    0.000000 (in units of recip. lattice)

  Lowest unoccupied state (CBM) at    -3.06038674 eV (relative to internal zero)
  | Occupation number:      0.00000000
  | K-point:       1 at    0.000000    0.000000    0.000000 (in units of recip. lattice)

  ESTIMATED overall HOMO-LUMO gap:      8.41290062 eV between HOMO at k-point 1 and LUMO at k-point 1
  The gap value is above 0.2 eV. Unless you are using a very sparse k-point grid,
  this system is most likely an insulator or a semiconductor.

  Total energy components:
  | Sum of eigenvalues            :         -43.17360641 Ha       -1174.81360428 eV
  | XC energy correction          :          -9.03184489 Ha        -245.76900417 eV
  | XC potential correction       :          11.61309149 Ha         316.00829783 eV
  | Free-atom electrostatic energy:         -35.69288276 Ha        -971.25275669 eV
  | Hartree energy correction     :          -0.16136520 Ha          -4.39097052 eV
  | Entropy correction            :           0.00000000 Ha           0.00000000 eV
  | ---------------------------
  | Total energy                  :         -76.44660777 Ha       -2080.21803783 eV
  | Total energy, T -> 0          :         -76.44660777 Ha       -2080.21803783 eV  <-- do not rely on this value for anything but (periodic) metals
  | Electronic free energy        :         -76.44660777 Ha       -2080.21803783 eV

  Derived energy quantities:
  | Kinetic energy                :          75.64849589 Ha        2058.50030848 eV
  | Electrostatic energy          :        -143.06325877 Ha       -3892.94934215 eV
  | Energy correction for multipole
  | error in Hartree potential    :          -0.00012063 Ha          -0.00328257 eV
  | Sum of eigenvalues per atom                           :        -391.60453476 eV
  | Total energy (T->0) per atom                          :        -693.40601261 eV  <-- do not rely on this value for anything but (periodic) metals
  | Electronic free energy per atom                       :        -693.40601261 eV
  Evaluating new KS density using the density matrix
  Evaluating density matrix
  Finished density matrix calculation
  | Time :     0.000 s
  Time summed over all CPUs for getting density from density matrix: real work        2.220 s, elapsed        2.727 s
  Integration grid: deviation in total charge (<rho> - N_e) =   8.881784E-15

  Self-consistency convergence accuracy:
  | Change of charge density      :  0.3156E+00
  | Change of unmixed KS density  :  0.9104E+01
  | Change of sum of eigenvalues  :  0.4602E+01 eV
  | Change of total energy        :  0.3726E+00 eV


------------------------------------------------------------
  End self-consistency iteration #     1       :  max(cpu_time)    wall_clock(cpu1)
  | Time for this iteration                     :        0.536 s           0.535 s
  | Charge density update                       :        0.176 s           0.173 s
  | Density mixing & preconditioning            :        0.076 s           0.075 s
  | Hartree multipole update                    :        0.004 s           0.004 s
  | Hartree multipole summation                 :        0.176 s           0.173 s
  | Integration                                 :        0.084 s           0.083 s
  | Solution of K.-S. eqns.                     :        0.020 s           0.019 s
  | Total energy evaluation                     :        0.008 s           0.002 s

  Partial memory accounting:
  | Current value for overall tracked memory usage:
  |   Minimum:        0.723 MB (on task  5)
  |   Maximum:        0.728 MB (on task  0)
  |   Average:        0.724 MB
  | Peak value for overall tracked memory usage:
  |   Minimum:        4.253 MB (on task 14 after allocating gradient_basis_wave)
  |   Maximum:        5.418 MB (on task  3 after allocating gradient_basis_wave)
  |   Average:        4.821 MB
  | Largest tracked array allocation so far:
  |   Minimum:        1.311 MB (gradient_basis_wave on task 14)
  |   Maximum:        1.638 MB (gradient_basis_wave on task  3)
  |   Average:        1.472 MB
  Note:  These values currently only include a subset of arrays which are explicitly tracked.
  The "true" memory usage will be greater.
------------------------------------------------------------

------------------------------------------------------------
          Begin self-consistency iteration #    2

  Date     :  20221003, Time     :  093000.932
------------------------------------------------------------
  Pulay mixing of updated and previous charge densities.
  Renormalizing the density to the exact electron count on the 3D integration grid.
  | Formal number of electrons (from input files) :      10.0000000000
  | Integrated number of electrons on 3D grid     :       9.9970664236
  | Charge integration error                      :      -0.0029335764
  | Normalization factor for density and gradient :       1.0002934437

  Evaluating partitioned Hartree potential by multipole expansion.
  | Original multipole sum: apparent total charge =   0.185713E-14
  | Sum of charges compensated after spline to logarithmic grids =   0.789079E-06
  | Analytical far-field extrapolation by fixed multipoles:
  | Hartree multipole sum: apparent total charge =   0.193092E-14
  Summing up the Hartree potential.
  Time summed over all CPUs for potential: real work        2.854 s, elapsed        3.377 s
  | RMS charge density error from multipole expansion :   0.106284E-02
  | Average real-space part of the electrostatic potential :      0.08539958 eV

  Integrating Hamiltonian matrix: batch-based integration.
  Time summed over all CPUs for integration: real work        1.179 s, elapsed        1.478 s

  Updating Kohn-Sham eigenvalues and eigenvectors using ELSI and the ELPA eigensolver.
  Starting ELPA eigensolver
  Finished transformation to standard eigenproblem
  | Time :     0.001 s
  Finished solving standard eigenproblem
  | Time :     0.004 s
  Finished back-transformation of eigenvectors
  | Time :     0.001 s

  Obtaining occupation numbers and electronic chemical potential using ELSI.
  | Note that, for insulating systems, the printed 'chemical potential' value is not uniquely defined.
  | It can be anywhere in the energy gap, as long as it correctly separates occupied and unoccupied states.
  | In systems with a gap, the physically relevant chemical potential is the VBM or HOMO.

  | Chemical potential (Fermi level):    -7.10230402 eV
  Highest occupied state (VBM) at     -8.46578342 eV (relative to internal zero)
  | Occupation number:      2.00000000
  | K-point:       1 at    0.000000    0.000000    0.000000 (in units of recip. lattice)

  Lowest unoccupied state (CBM) at    -2.74233157 eV (relative to internal zero)
  | Occupation number:      0.00000000
  | K-point:       1 at    0.000000    0.000000    0.000000 (in units of recip. lattice)

  ESTIMATED overall HOMO-LUMO gap:      5.72345185 eV between HOMO at k-point 1 and LUMO at k-point 1
  The gap value is above 0.2 eV. Unless you are using a very sparse k-point grid,
  this system is most likely an insulator or a semiconductor.

  Checking to see if s.c.f. parameters should be adjusted.
  The system likely has a gap. Increased the default Pulay mixing parameter (charge_mix_param). Value:   0.200000 .
  Kept the default occupation width. Value:   0.010000 eV.

  Total energy components:
  | Sum of eigenvalues            :         -41.90829595 Ha       -1140.38275484 eV
  | XC energy correction          :          -9.18794776 Ha        -250.01677931 eV
  | XC potential correction       :          11.81594212 Ha         321.52814421 eV
  | Free-atom electrostatic energy:         -35.69288276 Ha        -971.25275669 eV
  | Hartree energy correction     :          -1.41653645 Ha         -38.54591789 eV
  | Entropy correction            :           0.00000000 Ha           0.00000000 eV
  | ---------------------------
  | Total energy                  :         -76.38972080 Ha       -2078.67006453 eV
  | Total energy, T -> 0          :         -76.38972080 Ha       -2078.67006453 eV  <-- do not rely on this value for anything but (periodic) metals
  | Electronic free energy        :         -76.38972080 Ha       -2078.67006453 eV

  Derived energy quantities:
  | Kinetic energy                :          76.51462602 Ha        2082.06890853 eV
  | Electrostatic energy          :        -143.71639906 Ha       -3910.72219374 eV
  | Energy correction for multipole
  | error in Hartree potential    :          -0.00105941 Ha          -0.02882802 eV
  | Sum of eigenvalues per atom                           :        -380.12758495 eV
  | Total energy (T->0) per atom                          :        -692.89002151 eV  <-- do not rely on this value for anything but (periodic) metals
  | Electronic free energy per atom                       :        -692.89002151 eV
  Evaluating new KS density using the density matrix
  Evaluating density matrix
  Finished density matrix calculation
  | Time :     0.001 s
  Time summed over all CPUs for getting density from density matrix: real work        2.058 s, elapsed        2.416 s
  Integration grid: deviation in total charge (<rho> - N_e) =   7.105427E-15

  Self-consistency convergence accuracy:
  | Change of charge density      :  0.2847E+00
  | Change of unmixed KS density  :  0.2326E-01
  | Change of sum of eigenvalues  :  0.3443E+02 eV
  | Change of total energy        :  0.1548E+01 eV


------------------------------------------------------------
  End self-consistency iteration #     2       :  max(cpu_time)    wall_clock(cpu1)
  | Time for this iteration                     :        0.580 s           0.577 s
  | Charge density update                       :        0.156 s           0.154 s
  | Density mixing & preconditioning            :        0.076 s           0.074 s
  | Hartree multipole update                    :        0.004 s           0.004 s
  | Hartree multipole summation                 :        0.224 s           0.223 s
  | Integration                                 :        0.112 s           0.111 s
  | Solution of K.-S. eqns.                     :        0.008 s           0.008 s
  | Total energy evaluation                     :        0.004 s           0.001 s

  Partial memory accounting:
  | Current value for overall tracked memory usage:
  |   Minimum:        0.724 MB (on task  5)
  |   Maximum:        0.728 MB (on task  0)
  |   Average:        0.725 MB
  | Peak value for overall tracked memory usage:
  |   Minimum:        4.254 MB (on task 14 after allocating gradient_basis_wave)
  |   Maximum:        5.418 MB (on task  3 after allocating gradient_basis_wave)
  |   Average:        4.822 MB
  | Largest tracked array allocation so far:
  |   Minimum:        1.311 MB (gradient_basis_wave on task 14)
  |   Maximum:        1.638 MB (gradient_basis_wave on task  3)
  |   Average:        1.472 MB
  Note:  These values currently only include a subset of arrays which are explicitly tracked.
  The "true" memory usage will be greater.
------------------------------------------------------------

------------------------------------------------------------
          Begin self-consistency iteration #    3

  Date     :  20221003, Time     :  093001.512
------------------------------------------------------------
  Pulay mixing of updated and previous charge densities.
  Renormalizing the density to the exact electron count on the 3D integration grid.
  | Formal number of electrons (from input files) :      10.0000000000
  | Integrated number of electrons on 3D grid     :       9.9981326626
  | Charge integration error                      :      -0.0018673374
  | Normalization factor for density and gradient :       1.0001867686

  Evaluating partitioned Hartree potential by multipole expansion.
  | Original multipole sum: apparent total charge =  -0.664139E-15
  | Sum of charges compensated after spline to logarithmic grids =   0.552223E-06
  | Analytical far-field extrapolation by fixed multipoles:
  | Hartree multipole sum: apparent total charge =  -0.332069E-15
  Summing up the Hartree potential.
  Time summed over all CPUs for potential: real work        2.906 s, elapsed        3.402 s
  | RMS charge density error from multipole expansion :   0.158817E-02
  | Average real-space part of the electrostatic potential :      0.09565772 eV

  Integrating Hamiltonian matrix: batch-based integration.
  Time summed over all CPUs for integration: real work        1.161 s, elapsed        1.351 s

  Updating Kohn-Sham eigenvalues and eigenvectors using ELSI and the ELPA eigensolver.
  Starting ELPA eigensolver
  Finished transformation to standard eigenproblem
  | Time :     0.001 s
  Finished solving standard eigenproblem
  | Time :     0.005 s
  Finished back-transformation of eigenvectors
  | Time :     0.001 s

  Obtaining occupation numbers and electronic chemical potential using ELSI.
  | Note that, for insulating systems, the printed 'chemical potential' value is not uniquely defined.
  | It can be anywhere in the energy gap, as long as it correctly separates occupied and unoccupied states.
  | In systems with a gap, the physically relevant chemical potential is the VBM or HOMO.

  | Chemical potential (Fermi level):    -8.02012054 eV
  Highest occupied state (VBM) at     -8.95778664 eV (relative to internal zero)
  | Occupation number:      2.00000000
  | K-point:       1 at    0.000000    0.000000    0.000000 (in units of recip. lattice)

  Lowest unoccupied state (CBM) at    -2.76019040 eV (relative to internal zero)
  | Occupation number:      0.00000000
  | K-point:       1 at    0.000000    0.000000    0.000000 (in units of recip. lattice)

  ESTIMATED overall HOMO-LUMO gap:      6.19759624 eV between HOMO at k-point 1 and LUMO at k-point 1
  The gap value is above 0.2 eV. Unless you are using a very sparse k-point grid,
  this system is most likely an insulator or a semiconductor.

  Total energy components:
  | Sum of eigenvalues            :         -42.19453969 Ha       -1148.17184335 eV
  | XC energy correction          :          -9.15285048 Ha        -249.06173357 eV
  | XC potential correction       :          11.77088135 Ha         320.30197825 eV
  | Free-atom electrostatic energy:         -35.69288276 Ha        -971.25275669 eV
  | Hartree energy correction     :          -1.12385092 Ha         -30.58153949 eV
  | Entropy correction            :           0.00000000 Ha           0.00000000 eV
  | ---------------------------
  | Total energy                  :         -76.39324250 Ha       -2078.76589484 eV
  | Total energy, T -> 0          :         -76.39324250 Ha       -2078.76589484 eV  <-- do not rely on this value for anything but (periodic) metals
  | Electronic free energy        :         -76.39324250 Ha       -2078.76589484 eV

  Derived energy quantities:
  | Kinetic energy                :          76.06618636 Ha        2069.86624439 eV
  | Electrostatic energy          :        -143.30657838 Ha       -3899.57040567 eV
  | Energy correction for multipole
  | error in Hartree potential    :          -0.00076244 Ha          -0.02074695 eV
  | Sum of eigenvalues per atom                           :        -382.72394778 eV
  | Total energy (T->0) per atom                          :        -692.92196495 eV  <-- do not rely on this value for anything but (periodic) metals
  | Electronic free energy per atom                       :        -692.92196495 eV
  Evaluating new KS density using the density matrix
  Evaluating density matrix
  Finished density matrix calculation
  | Time :     0.000 s
  Time summed over all CPUs for getting density from density matrix: real work        2.039 s, elapsed        2.416 s
  Integration grid: deviation in total charge (<rho> - N_e) =  -1.776357E-15

  Self-consistency convergence accuracy:
  | Change of charge density      :  0.1184E+00
  | Change of unmixed KS density  :  0.1834E+00
  | Change of sum of eigenvalues  : -0.7789E+01 eV
  | Change of total energy        : -0.9583E-01 eV


------------------------------------------------------------
  End self-consistency iteration #     3       :  max(cpu_time)    wall_clock(cpu1)
  | Time for this iteration                     :        0.556 s           0.554 s
  | Charge density update                       :        0.156 s           0.154 s
  | Density mixing & preconditioning            :        0.076 s           0.073 s
  | Hartree multipole update                    :        0.004 s           0.004 s
  | Hartree multipole summation                 :        0.228 s           0.225 s
  | Integration                                 :        0.088 s           0.088 s
  | Solution of K.-S. eqns.                     :        0.008 s           0.007 s
  | Total energy evaluation                     :        0.004 s           0.002 s

  Partial memory accounting:
  | Current value for overall tracked memory usage:
  |   Minimum:        0.724 MB (on task  5)
  |   Maximum:        0.728 MB (on task  0)
  |   Average:        0.725 MB
  | Peak value for overall tracked memory usage:
  |   Minimum:        4.254 MB (on task 14 after allocating gradient_basis_wave)
  |   Maximum:        5.418 MB (on task  3 after allocating gradient_basis_wave)
  |   Average:        4.822 MB
  | Largest tracked array allocation so far:
  |   Minimum:        1.311 MB (gradient_basis_wave on task 14)
  |   Maximum:        1.638 MB (gradient_basis_wave on task  3)
  |   Average:        1.472 MB
  Note:  These values currently only include a subset of arrays which are explicitly tracked.
  The "true" memory usage will be greater.
------------------------------------------------------------

------------------------------------------------------------
          Begin self-consistency iteration #    4

  Date     :  20221003, Time     :  093002.069
------------------------------------------------------------
  Pulay mixing of updated and previous charge densities.
  Renormalizing the density to the exact electron count on the 3D integration grid.
  | Formal number of electrons (from input files) :      10.0000000000
  | Integrated number of electrons on 3D grid     :       9.9963339554
  | Charge integration error                      :      -0.0036660446
  | Normalization factor for density and gradient :       1.0003667389

  Evaluating partitioned Hartree potential by multipole expansion.
  | Original multipole sum: apparent total charge =  -0.243518E-14
  | Sum of charges compensated after spline to logarithmic grids =   0.692045E-06
  | Analytical far-field extrapolation by fixed multipoles:
  | Hartree multipole sum: apparent total charge =  -0.209081E-14
  Summing up the Hartree potential.
  Time summed over all CPUs for potential: real work        3.000 s, elapsed        3.409 s
  | RMS charge density error from multipole expansion :   0.262947E-02
  | Average real-space part of the electrostatic potential :      0.14987873 eV

  Integrating Hamiltonian matrix: batch-based integration.
  Time summed over all CPUs for integration: real work        1.187 s, elapsed        1.381 s

  Updating Kohn-Sham eigenvalues and eigenvectors using ELSI and the ELPA eigensolver.
  Starting ELPA eigensolver
  Finished transformation to standard eigenproblem
  | Time :     0.001 s
  Finished solving standard eigenproblem
  | Time :     0.004 s
  Finished back-transformation of eigenvectors
  | Time :     0.000 s

  Obtaining occupation numbers and electronic chemical potential using ELSI.
  | Note that, for insulating systems, the printed 'chemical potential' value is not uniquely defined.
  | It can be anywhere in the energy gap, as long as it correctly separates occupied and unoccupied states.
  | In systems with a gap, the physically relevant chemical potential is the VBM or HOMO.

  | Chemical potential (Fermi level):    -6.79876409 eV
  Highest occupied state (VBM) at     -7.72568527 eV (relative to internal zero)
  | Occupation number:      2.00000000
  | K-point:       1 at    0.000000    0.000000    0.000000 (in units of recip. lattice)

  Lowest unoccupied state (CBM) at    -2.55704179 eV (relative to internal zero)
  | Occupation number:      0.00000000
  | K-point:       1 at    0.000000    0.000000    0.000000 (in units of recip. lattice)

  ESTIMATED overall HOMO-LUMO gap:      5.16864348 eV between HOMO at k-point 1 and LUMO at k-point 1
  The gap value is above 0.2 eV. Unless you are using a very sparse k-point grid,
  this system is most likely an insulator or a semiconductor.

  Total energy components:
  | Sum of eigenvalues            :         -41.74064832 Ha       -1135.82083066 eV
  | XC energy correction          :          -9.21733865 Ha        -250.81654616 eV
  | XC potential correction       :          11.85548184 Ha         322.60407473 eV
  | Free-atom electrostatic energy:         -35.69288276 Ha        -971.25275669 eV
  | Hartree energy correction     :          -1.58882522 Ha         -43.23413402 eV
  | Entropy correction            :           0.00000000 Ha           0.00000000 eV
  | ---------------------------
  | Total energy                  :         -76.38421312 Ha       -2078.52019281 eV
  | Total energy, T -> 0          :         -76.38421312 Ha       -2078.52019281 eV  <-- do not rely on this value for anything but (periodic) metals
  | Electronic free energy        :         -76.38421312 Ha       -2078.52019281 eV

  Derived energy quantities:
  | Kinetic energy                :          76.11673552 Ha        2071.24175720 eV
  | Electrostatic energy          :        -143.28360998 Ha       -3898.94540384 eV
  | Energy correction for multipole
  | error in Hartree potential    :          -0.00106971 Ha          -0.02910828 eV
  | Sum of eigenvalues per atom                           :        -378.60694355 eV
  | Total energy (T->0) per atom                          :        -692.84006427 eV  <-- do not rely on this value for anything but (periodic) metals
  | Electronic free energy per atom                       :        -692.84006427 eV
  Evaluating new KS density using the density matrix
  Evaluating density matrix
  Finished density matrix calculation
  | Time :     0.000 s
  Time summed over all CPUs for getting density from density matrix: real work        1.980 s, elapsed        2.307 s
  Integration grid: deviation in total charge (<rho> - N_e) =  -1.776357E-15

  Self-consistency convergence accuracy:
  | Change of charge density      :  0.1050E+00
  | Change of unmixed KS density  :  0.5661E-01
  | Change of sum of eigenvalues  :  0.1235E+02 eV
  | Change of total energy        :  0.2457E+00 eV


------------------------------------------------------------
  End self-consistency iteration #     4       :  max(cpu_time)    wall_clock(cpu1)
  | Time for this iteration                     :        0.596 s           0.594 s
  | Charge density update                       :        0.148 s           0.148 s
  | Density mixing & preconditioning            :        0.120 s           0.119 s
  | Hartree multipole update                    :        0.004 s           0.004 s
[...]
  3.072658767606542E-012  5.382890879063713E-012 -2.368197368712307E-004
 FOU  0.000000000000000E+000  0.000000000000000E+000  0.000000000000000E+000
  0.000000000000000E+000  0.000000000000000E+000  0.000000000000000E+000
  0.000000000000000E+000  0.000000000000000E+000  0.000000000000000E+000
 FOU  0.000000000000000E+000  0.000000000000000E+000  0.000000000000000E+000
  0.000000000000000E+000  0.000000000000000E+000  0.000000000000000E+000
  0.000000000000000E+000  0.000000000000000E+000  0.000000000000000E+000
 FOU  0.000000000000000E+000  0.000000000000000E+000  0.000000000000000E+000
  0.000000000000000E+000  0.000000000000000E+000  0.000000000000000E+000
  0.000000000000000E+000  0.000000000000000E+000  0.000000000000000E+000
  0.000000000000000E+000  0.000000000000000E+000  0.000000000000000E+000
  0.000000000000000E+000  0.000000000000000E+000  0.000000000000000E+000
  0.000000000000000E+000  0.000000000000000E+000  0.000000000000000E+000
  0.000000000000000E+000  0.000000000000000E+000  0.000000000000000E+000
  0.000000000000000E+000  0.000000000000000E+000  0.000000000000000E+000
  0.000000000000000E+000  0.000000000000000E+000  0.000000000000000E+000
  5.195218864772765E-005 -3.945466591693352E-003  4.658817303224521E-009
 -1.243745512606416E-011 -1.108808259292728E-010  4.309039757799049E-003
  End CPSCF iteration #     5                  :  max(cpu_time)    wall_clock(cpu1)
  | Time for this iteration                     :        1.416 s           1.411 s
  | first_order_DM                              :        0.004 s           0.003 s
  | first_order_density                         :        0.148 s           0.148 s
  | first_order_potential                       :        0.244 s           0.241 s
  | first_order_H                               :        1.012 s           1.012 s
  | Solution of Sternheimer eqns.               :        0.004 s           0.003 s
------------------------------------------------------------

--------------------- CPSCF ---------------------------------------
          Begin CP-self-consistency iteration #    6

  Date     :  20221003, Time     :  093033.975
------------------------------------------------------------

  CPSCF convergence accuracy:
  | Change of first_order_density_matrix     :  0.7612E-03
  Integrating first_order_rho: batch-based integration.
  Time summed over all CPUs for integration: real work        2.051 s, elapsed        2.526 s

  Evaluating partitioned Hartree potential by multipole expansion.
  | Original multipole sum: apparent total charge =  -0.232449E-14
  | Sum of charges compensated after spline to logarithmic grids =   0.460775E-06
  | Analytical far-field extrapolation by fixed multipoles:
  | Hartree multipole sum: apparent total charge =  -0.245977E-14
  Summing up the Hartree potential.
  Time summed over all CPUs for potential: real work        3.503 s, elapsed        3.790 s
  | RMS delta_rho error from multipole expansion :   0.208280E-01

  Integrating first-order-Hamiltonian matrix: batch-based integration.
  Time summed over all CPUs for integration: real work       12.970 s, elapsed       14.668 s
 FOH  0.000000000000000E+000  0.000000000000000E+000  0.000000000000000E+000
 FOH  0.000000000000000E+000  0.000000000000000E+000  0.000000000000000E+000
  0.000000000000000E+000  0.000000000000000E+000  0.000000000000000E+000
  0.000000000000000E+000  0.000000000000000E+000  0.000000000000000E+000
 FOH -3.452298695398267E-012  1.838019333629216E-011  1.572756896428713E-005
  1.536035442855673E-011  2.112298058269785E-010  4.125981455873781E-005
  3.888503604009105E-011 -1.964217898378736E-010 -2.324065212195065E-004
 FOH  0.000000000000000E+000  0.000000000000000E+000  0.000000000000000E+000
  0.000000000000000E+000  0.000000000000000E+000  0.000000000000000E+000
  0.000000000000000E+000  0.000000000000000E+000  0.000000000000000E+000
 FOH -1.388071948889267E-003  3.626038766413554E-003 -1.138724366457700E-003
 FOH  2.741938759105170E-002 -5.701926302709710E-005 -6.289539459428373E-005
  0.000000000000000E+000  7.868428203792674E-003  4.155792386711266E-003
  0.000000000000000E+000  0.000000000000000E+000  2.208692314286870E-002
 FOH -2.759899231697947E-003 -1.067784737211828E-004 -6.439612222942290E-012
  8.253689121577885E-003  3.581313793010662E-004 -3.921075771727336E-010
  1.849018741547954E-002  8.650106715991647E-004  7.315675676055337E-011
 FOH -1.896840474636419E-009 -7.032169608381504E-011  4.763325161425526E-003
 -1.208915842656350E-011  5.989665145587461E-010 -1.137700824953451E-004
 -1.793810309848104E-005  3.843953278562041E-003 -4.111942581755493E-011
 FOH  1.343500421465730E-002  1.071486669035147E-003  2.095650274341066E-010
  0.000000000000000E+000  1.354992793806680E-002  5.224737587964296E-010
  0.000000000000000E+000  0.000000000000000E+000  1.408500405890551E-002
 FOH  5.343965194710160E-002 -1.886364485752941E-002 -5.310135365894597E-004
  9.432505432597787E-004 -3.210841574655222E-004  3.266685651238110E-002
  6.731054968016952E-004 -6.016569441275976E-005 -9.435223514127197E-003
 FOH  0.000000000000000E+000  0.000000000000000E+000  0.000000000000000E+000
 FOH -1.580549804455434E-003 -7.450857409952438E-004  2.988536978132338E-002
  1.417028274697415E-002 -1.649496984343660E-002  1.867210830844412E-003
  1.650311895771197E-003 -5.895968625626440E-004 -2.297353507607112E-002
  0.000000000000000E+000  0.000000000000000E+000  0.000000000000000E+000
 FOH -6.479470092233164E-003 -1.478316454525509E-004 -7.054856491978825E-003
  0.000000000000000E+000 -6.948444646039669E-003  1.375853825869287E-002
  0.000000000000000E+000  0.000000000000000E+000 -7.141888119322818E-003
 FOH  1.580747117459074E-002 -8.249183414625707E-003  7.596790817280418E-010
  0.000000000000000E+000  1.517857314550826E-002  9.767368272481456E-012
  0.000000000000000E+000  0.000000000000000E+000  7.704528901132581E-003
  0.000000000000000E+000  0.000000000000000E+000  0.000000000000000E+000
 -5.814847149974965E-004 -2.145813092150147E-003  6.160825314042940E-002
 FOH  0.000000000000000E+000  0.000000000000000E+000  0.000000000000000E+000
  0.000000000000000E+000  0.000000000000000E+000  0.000000000000000E+000
  0.000000000000000E+000  0.000000000000000E+000  0.000000000000000E+000
  0.000000000000000E+000  0.000000000000000E+000  0.000000000000000E+000
  0.000000000000000E+000  0.000000000000000E+000  0.000000000000000E+000
 FOH  0.000000000000000E+000  0.000000000000000E+000  0.000000000000000E+000
  4.741299195592854E-003 -5.320676936504785E-003 -6.334700854220689E-002
  0.000000000000000E+000  0.000000000000000E+000  0.000000000000000E+000
  0.000000000000000E+000  0.000000000000000E+000  0.000000000000000E+000
 FOU  0.000000000000000E+000  0.000000000000000E+000  0.000000000000000E+000
  0.000000000000000E+000  0.000000000000000E+000  0.000000000000000E+000
  0.000000000000000E+000  0.000000000000000E+000  0.000000000000000E+000
 FOU -6.419832161091209E-005 -4.862483722173194E-005 -3.068210180992787E-012
  2.148604436053329E-005  9.147642633212091E-003 -4.820245148881927E-012
 -2.046165299810294E-009  1.212810271617083E-009  2.371264811989810E-004
 FOU -3.304135127107829E-012 -2.107073059864422E-004 -1.321999721789026E-011
  2.191563368163368E-011  6.197272744565610E-004  5.116062452594023E-011
 -1.574330941485585E-005  5.527090776950461E-011 -2.201428284799894E-004
 FOU  0.000000000000000E+000  0.000000000000000E+000  0.000000000000000E+000
 FOU -7.016036852465551E-010  5.435463086252311E-008  3.223277791602145E-004
  5.207773542679284E-005 -3.944761705345417E-003  4.645974047546513E-009
 -1.247303583721010E-011 -1.111745110010789E-010  4.309404344411592E-003
 FOU  0.000000000000000E+000  0.000000000000000E+000  0.000000000000000E+000
 FOU  0.000000000000000E+000  0.000000000000000E+000  0.000000000000000E+000
 FOU  0.000000000000000E+000  0.000000000000000E+000  0.000000000000000E+000
  0.000000000000000E+000  0.000000000000000E+000  0.000000000000000E+000
  0.000000000000000E+000  0.000000000000000E+000  0.000000000000000E+000
 FOU  6.419893077861820E-005 -2.149286042677076E-005  2.046140178078568E-009
 FOU  0.000000000000000E+000  0.000000000000000E+000  0.000000000000000E+000
  0.000000000000000E+000  0.000000000000000E+000  0.000000000000000E+000
 FOU  0.000000000000000E+000  0.000000000000000E+000  0.000000000000000E+000
  0.000000000000000E+000  0.000000000000000E+000  0.000000000000000E+000
  0.000000000000000E+000  0.000000000000000E+000  0.000000000000000E+000
 FOU  7.015910483253589E-010 -5.207695202460429E-005  1.247304469856381E-011
 -5.435590859313477E-008  3.944859687297955E-003  1.111988543006653E-010
 -3.222369250967076E-004 -4.644732698595353E-009 -4.309496504612491E-003
 FOU  3.303667214834442E-012 -2.191732937883697E-011  1.574937209957662E-005
  2.107081234771817E-004 -6.197345558744983E-004 -5.527827458797437E-011
  1.322238491765303E-011 -5.115212536067678E-011  2.201403082582787E-004
  0.000000000000000E+000  0.000000000000000E+000  0.000000000000000E+000
 FOU  0.000000000000000E+000  0.000000000000000E+000  0.000000000000000E+000
  0.000000000000000E+000  0.000000000000000E+000  0.000000000000000E+000
  0.000000000000000E+000  0.000000000000000E+000  0.000000000000000E+000
 FOU  0.000000000000000E+000  0.000000000000000E+000  0.000000000000000E+000
  0.000000000000000E+000  0.000000000000000E+000  0.000000000000000E+000
  0.000000000000000E+000  0.000000000000000E+000  0.000000000000000E+000
  4.862510281608892E-005 -9.147670337873455E-003 -1.212843148917874E-009
 FOU  0.000000000000000E+000  0.000000000000000E+000  0.000000000000000E+000
  0.000000000000000E+000  0.000000000000000E+000  0.000000000000000E+000
  0.000000000000000E+000  0.000000000000000E+000  0.000000000000000E+000
  0.000000000000000E+000  0.000000000000000E+000  0.000000000000000E+000
  0.000000000000000E+000  0.000000000000000E+000  0.000000000000000E+000
  0.000000000000000E+000  0.000000000000000E+000  0.000000000000000E+000
  0.000000000000000E+000  0.000000000000000E+000  0.000000000000000E+000
  3.068307617951756E-012  4.815957861747639E-012 -2.371231366299093E-004
  0.000000000000000E+000  0.000000000000000E+000  0.000000000000000E+000
  0.000000000000000E+000  0.000000000000000E+000  0.000000000000000E+000

  CP-self-consistency cycle converged.

  End CPSCF iteration #     6                  :  max(cpu_time)    wall_clock(cpu1)
  | Time for this iteration                     :        1.360 s           1.360 s
  | first_order_DM                              :        0.004 s           0.003 s
  | first_order_density                         :        0.168 s           0.167 s
  | first_order_potential                       :        0.252 s           0.253 s
  | first_order_H                               :        0.932 s           0.929 s
  | Solution of Sternheimer eqns.               :        0.004 s           0.002 s
------------------------------------------------------------
dP_dE (Bohr^3) at every cycle:--->
 (12.2541040342957,0.000000000000000E+000) (5.372025846069886E-007,0.000000000000000E+000) (-0.240157524452932,0.000000000000000E+000)
 (4.338733363963324E-007,0.000000000000000E+000) (10.8217861505135,0.000000000000000E+000) (-1.281976192690441E-008,0.000000000000000E+000)
 (-0.240137187832638,0.000000000000000E+000) (-7.222742914340460E-009,0.000000000000000E+000) (15.4855638326794,0.000000000000000E+000)
DFPT polarizability (Bohr^3)        xx        yy        zz        xy        xz        yz
  | Polarizability:--->                        12.254104034                   10.821786151                   15.485563833                    0.000000537                   -0.240157524                   -0.000000013

DFPT for dielectric_constant:--->  # PARSE DFPT_dielectric_tensor
               1.182551249854936             0.000000008002789            -0.003577663134592
               0.000000006463477             1.161213792694280            -0.000000000190978
              -0.003577360176869            -0.000000000107598             1.230690797503622

                                               :  max(cpu_time)    wall_clock(cpu1)
  | Time for  dielectric calculation            :        0.000 s           0.000 s
===========================================================================

------------------------------------------------------------------------------
  Final output of selected total energy values:

  The following output summarizes some interesting total energy values
  at the end of a run (AFTER all relaxation, molecular dynamics, etc.).

  | Total energy of the DFT / Hartree-Fock s.c.f. calculation      :          -2078.504562069 eV
  | Final zero-broadening corrected energy (caution - metals only) :          -2078.504562069 eV
  | For reference only, the value of 1 Hartree used in FHI-aims is :             27.211384500 eV
  | For reference only, the overall average (free atom contribution
  | + realspace contribution) of the electrostatic potential after
  | s.c.f. convergence is                                          :             -1.115577794 eV

  Before relying on these values, please be sure to understand exactly which
  total energy value is referred to by a given number. Different objects may
  all carry the same name 'total energy'. Definitions:

  Total energy of the DFT / Hartree-Fock s.c.f. calculation:
  | Note that this energy does not include ANY quantities calculated after the
  | s.c.f. cycle, in particular not ANY RPA, MP2, etc. many-body perturbation terms.

  Final zero-broadening corrected energy:
  | For metallic systems only, a broadening of the occupation numbers at the Fermi
  | level can be extrapolated back to zero broadening by an electron-gas inspired
  | formula. For all systems that are not real metals, this value can be
  | meaningless and should be avoided.

------------------------------------------------------------------------------
  Methods described in the following list of references were used in this FHI-aims run.
  If you publish the results, please make sure to cite these reference if they apply.
  FHI-aims is an academic code, and for our developers (often, Ph.D. students
  and postdocs), scientific credit in the community is essential.
  Thank you for helping us!

  For any use of FHI-aims, please cite:

    Volker Blum, Ralf Gehrke, Felix Hanke, Paula Havu, Ville Havu,
    Xinguo Ren, Karsten Reuter, and Matthias Scheffler
    'Ab initio molecular simulations with numeric atom-centered orbitals'
    Computer Physics Communications 180, 2175-2196 (2009)
    http://doi.org/10.1016/j.cpc.2009.06.022


  The provided symmetry information was generated with SPGlib:

    Atsushi Togo, Yusuke Seto, Dimitar Pashov
    SPGlib 1.7.3 obtained from http://spglib.sourceforge.net
    Copyright (C) 2008 Atsushi Togo


  The DFPT (perturbation by an electric field) part of the code was used.
  Here is the corresponding reference:

    Honghui Shang, Nathaniel Raimbault, Mariana Rossi,
    Christian Carbogno, Patrick Rinke and Matthias Scheffler,
    'All-Electron, Real-Space Perturbation Theory for Homogeneous
    Electric Fields: Theory, Implementation, and Application within dft'
    New Journal of Physics, 20(7):073040, 2018


  The ELSI infrastructure was used in your run to solve the Kohn-Sham electronic structure.
  Please check out http://elsi-interchange.org to learn more.
  If scalability is important for your project, please acknowledge ELSI by citing:

    V. W-z. Yu, F. Corsetti, A. Garcia, W. P. Huhn, M. Jacquelin, W. Jia,
    B. Lange, L. Lin, J. Lu, W. Mi, A. Seifitokaldani, A. Vazquez-Mayagoitia,
    C. Yang, H. Yang, and V. Blum
    'ELSI: A unified software interface for Kohn-Sham electronic structure solvers'
    Computer Physics Communications 222, 267-285 (2018).
    http://doi.org/10.1016/j.cpc.2017.09.007


  For the real-space grid partitioning and parallelization used in this calculation, please cite:

    Ville Havu, Volker Blum, Paula Havu, and Matthias Scheffler,
    'Efficient O(N) integration for all-electron electronic structure calculation'
    'using numerically tabulated basis functions'
    Journal of Computational Physics 228, 8367-8379 (2009).
    http://doi.org/10.1016/j.jcp.2009.08.008

  Of course, there are many other important community references, e.g., those cited in the
  above references. Our list is limited to references that describe implementations in the
  FHI-aims code. The reason is purely practical (length of this list) - please credit others as well.

------------------------------------------------------------
          Leaving FHI-aims.
          Date     :  20221003, Time     :  093035.342

          Computational steps:
          | Number of self-consistency cycles          :           33
          | Number of SCF (re)initializations          :            1
          | Number of coupled perturbed self-consistency cycles          :            0
          | Number of CPSCF (re)initializations          :            0

          Detailed time accounting                     :  max(cpu_time)    wall_clock(cpu1)
          | Total time                                  :       35.676 s          35.736 s
          | Preparation time                            :        0.148 s           0.159 s
          | Boundary condition initalization            :        0.048 s           0.047 s
          | Grid partitioning                           :        0.032 s           0.030 s
          | Preloading free-atom quantities on grid     :        0.084 s           0.078 s
          | Free-atom superposition energy              :        0.012 s           0.011 s
          | Total time for integrations                 :        1.412 s           1.384 s
          | Total time for solution of K.-S. equations  :        0.156 s           0.142 s
          | Total time for density update               :        2.176 s           2.152 s
          | Total time for mixing & preconditioning     :        1.184 s           1.158 s
          | Total time for Hartree multipole update     :        0.056 s           0.053 s
          | Total time for Hartree multipole sum        :        3.056 s           3.033 s
          | Total time for total energy evaluation      :        0.064 s           0.021 s
          | Total time first_order_DM                   :        0.084 s           0.067 s
          | Total time first_order_density              :        2.868 s           2.843 s
          | Total time first_order_potential            :        4.580 s           4.561 s
          | Total time first_order_H                    :       18.736 s          18.707 s
          | Total time solving of Sternheimer equations :        0.076 s           0.056 s
          | Total time for dielectric constant          :        0.000 s           0.000 s
          | Total time momentum matrix                  :        0.000 s           0.000 s

          Partial memory accounting:
          | Residual value for overall tracked memory usage across tasks:     0.000000 MB (should be 0.000000 MB)
          | Peak values for overall tracked memory usage:
          |   Minimum:        9.327 MB (on task  5 after allocating DFPT_pulay_mixing::pulay_mix::alphas)
          |   Maximum:        9.331 MB (on task  0 after allocating DFPT_pulay_mixing::pulay_mix::alphas)
          |   Average:        9.328 MB
          | Largest tracked array allocation:
          |   Minimum:        3.345 MB (DFPT_pulay_mixing::initialize_pulay_mixing::X_in_diffs on task  0)
          |   Maximum:        3.345 MB (DFPT_pulay_mixing::initialize_pulay_mixing::X_in_diffs on task  0)
          |   Average:        3.345 MB
          Note:  These values currently only include a subset of arrays which are explicitly tracked.
          The "true" memory usage will be greater.

          Have a nice day.
------------------------------------------------------------
