------------------------------------------------------------
          Invoking FHI-aims ...

          When using FHI-aims, please cite the following reference:

            Volker Blum, Ralf Gehrke, Felix Hanke, Paula Havu,
            Ville Havu, Xinguo Ren, Karsten Reuter, and Matthias Scheffler,
            'Ab Initio Molecular Simulations with Numeric Atom-Centered Orbitals',
            Computer Physics Communications 180, 2175-2196 (2009)

          In addition, many other developments in FHI-aims are likely important for
          your particular application. A partial list of references is given at the end of
          this file. Thank you for giving credit to the authors of these developments.

          For any questions about FHI-aims, please visit our slack channel at

            https://fhi-aims.slack.com

          and our main development and support site at

            https://aims-git.rz-berlin.mpg.de .

          The latter site, in particular, has a wiki to collect information, as well
          as an issue tracker to log discussions, suggest improvements, and report issues
          or bugs. https://aims-git.rz-berlin.mpg.de is also the main development site
          of the project and all new and updated code versions can be obtained there.
          Please send an email to aims-coordinators@fhi-berlin.mpg.de and we will add
          you to these sites. They are for you and everyone is welcome there.

------------------------------------------------------------



  Date     :  20221003, Time     :  100331.376
  Time zero on CPU 1             :   0.480000000000000E-01  s.
  Internal wall clock time zero  :           434023411.376  s.

  FHI-aims created a unique identifier for this run for later identification
  aims_uuid : AF41D509-A650-4BBF-A9C8-BDB423A26FB8

  Build configuration of the current instance of FHI-aims
  -------------------------------------------------------
  FHI-aims version      : 220810
  Commit number         : eae8be818
  CMake host system     : Linux-4.9.0-16-amd64
  CMake version         : 3.17.3
  Fortran compiler      : /opt/easybuild/software/impi/2017.3.196-iccifort-2017.4.196-GCC-6.4.0-2.28/bin64/mpiifort (Intel) version 17.0.4.20170411
  Fortran compiler flags: -O3 -ip -fp-model precise
  C compiler            : /opt/easybuild/software/icc/2017.4.196-GCC-6.4.0-2.28/compilers_and_libraries_2017.4.196/linux/bin/intel64/icc (Intel) version 17.0.4.20170411
  C compiler flags      : -O3 -ip -fp-model precise -std=gnu99
  Using MPI
  Using ScaLAPACK
  Using LibXC
  Using i-PI
  Using RLSY
  Linking against: /opt/easybuild/software/imkl/2017.3.196-iimpi-2017b/mkl/lib/intel64/libmkl_intel_lp64.so
                   /opt/easybuild/software/imkl/2017.3.196-iimpi-2017b/mkl/lib/intel64/libmkl_sequential.so
                   /opt/easybuild/software/imkl/2017.3.196-iimpi-2017b/mkl/lib/intel64/libmkl_core.so
                   /opt/easybuild/software/imkl/2017.3.196-iimpi-2017b/mkl/lib/intel64/libmkl_blacs_intelmpi_lp64.so
                   /opt/easybuild/software/imkl/2017.3.196-iimpi-2017b/mkl/lib/intel64/libmkl_scalapack_lp64.so

  Using       16 parallel tasks.
  Task        0 on host mpsd-hpc-ibm-056 reporting.
  Task        1 on host mpsd-hpc-ibm-056 reporting.
  Task        2 on host mpsd-hpc-ibm-056 reporting.
  Task        3 on host mpsd-hpc-ibm-056 reporting.
  Task        4 on host mpsd-hpc-ibm-057 reporting.
  Task        5 on host mpsd-hpc-ibm-057 reporting.
  Task        6 on host mpsd-hpc-ibm-057 reporting.
  Task        7 on host mpsd-hpc-ibm-057 reporting.
  Task        8 on host mpsd-hpc-ibm-058 reporting.
  Task        9 on host mpsd-hpc-ibm-058 reporting.
  Task       10 on host mpsd-hpc-ibm-058 reporting.
  Task       11 on host mpsd-hpc-ibm-058 reporting.
  Task       12 on host mpsd-hpc-ibm-059 reporting.
  Task       13 on host mpsd-hpc-ibm-059 reporting.
  Task       14 on host mpsd-hpc-ibm-059 reporting.
  Task       15 on host mpsd-hpc-ibm-059 reporting.

  Performing system and environment tests:
  | Environment variable OMP_NUM_THREADS correctly set to 1.
  | Checking for ScaLAPACK...
  | Testing pdtran()...
  | All pdtran() tests passed.

  Obtaining array dimensions for all initial allocations:
  
  -----------------------------------------------------------------------
  Parsing control.in (first pass over file, find array dimensions only).
  The contents of control.in will be repeated verbatim below
  unless switched off by setting 'verbatim_writeout .false.' .
  in the first line of control.in .
  -----------------------------------------------------------------------
  
  #########################################################################################
  #
  #  Volker Blum, 2017 : Test run input file control.in for simple H2O
  #
  #########################################################################################
  #
  #  Physical model
  #
    xc                 pbe
    spin               none
    relativistic       none
    charge             0.
  
  #  ri_density_restart         write
  #  ri_rho1 write
  #  ri_full_output .True.
  #  ri_output_density_only .True.
    DFPT dielectric
    sc_accuracy_rho    1d-6
  #  use_calculate_fock_matrix_old .false.
  #  output cube total_density
    k_grid 1 1 1
    wave_threshold 1e-8
  
  # prodbas_threshold 1e-2
  #
  #  Relaxation
  #
  #  relax_geometry   bfgs 1.e-2
  #
  
  ################################################################################
  
  ################################################################################
  #
  #  FHI-aims code project
  #  VB, Fritz-Haber Institut, 2009
  #
  #  Suggested "light" defaults for O atom (to be pasted into control.in file)
  #  Be sure to double-check any results obtained with these settings for post-processing,
  #  e.g., with the "tight" defaults and larger basis sets.
  #
  ################################################################################
    species        O
  #     global species definitions
      nucleus             8
      mass                15.9994
  #
      l_hartree           6
  #
      cut_pot             4.0  2.0  1.0
      basis_dep_cutoff    1e-4
  #
      radial_base         36 7.0
      radial_multiplier   2
       angular_grids specified
        division   0.2659   50
        division   0.4451  110
        division   0.6052  194
        division   0.7543  302
        division   0.8014  434
  #      division   0.8507  590
  #      division   0.8762  770
  #      division   0.9023  974
  #      division   1.2339 1202
  #      outer_grid 974
        outer_grid 434
  ################################################################################
  #
  #  Definition of "minimal" basis
  #
  ################################################################################
  #     valence basis states
      valence      2  s   2.
      valence      2  p   4.
  #     ion occupancy
      ion_occ      2  s   1.
      ion_occ      2  p   3.
  ################################################################################
  #
  #  Suggested additional basis functions. For production calculations,
  #  uncomment them one after another (the most important basis functions are
  #  listed first).
  #
  #
  ################################################################################
  #  "First tier" - improvements: -699.05 meV to -159.38 meV
       hydro 2 p 1.8
       hydro 3 d 7.6
       hydro 3 s 6.4
  #  "Second tier" - improvements: -49.91 meV to -5.39 meV
       hydro 4 f 11.6
       hydro 3 p 6.2
       hydro 3 d 5.6
       hydro 5 g 17.6
       hydro 1 s 0.75
  #  "Third tier" - improvements: -2.83 meV to -0.50 meV
  #     ionic 2 p auto
  #     hydro 4 f 10.8
  #     hydro 4 d 4.7
  #     hydro 2 s 6.8
  #  "Fourth tier" - improvements: -0.40 meV to -0.12 meV
  #     hydro 3 p 5
  #     hydro 3 s 3.3
  #     hydro 5 g 15.6
  #     hydro 4 f 17.6
  #     hydro 4 d 14
  # Further basis functions - -0.08 meV and below
  #     hydro 3 s 2.1
  #     hydro 4 d 11.6
  #     hydro 3 p 16
  #     hydro 2 s 17.2
  ################################################################################
  #
  #  FHI-aims code project
  #  VB, Fritz-Haber Institut, 2009
  #
  #  Suggested "light" defaults for H atom (to be pasted into control.in file)
  #  Be sure to double-check any results obtained with these settings for post-processing,
  #  e.g., with the "tight" defaults and larger basis sets.
  #
  ################################################################################
    species        H
  #     global species definitions
      nucleus             1
      mass                1.00794
  #
      l_hartree           6
  #
      cut_pot             4.0  2.0  1.0
      basis_dep_cutoff    1e-4
  #
      radial_base         24 7.0
      radial_multiplier   2
      angular_grids       specified
        division   0.2421   50
        division   0.3822  110
        division   0.4799  194
        division   0.5341  302
        division   0.5626  434
  #      division   0.5922  590
  #      division   0.6542  770
  #      division   0.6868 1202
  #      outer_grid  770
        outer_grid  434
  ################################################################################
  #
  #  Definition of "minimal" basis
  #
  ################################################################################
  #     valence basis states
      valence      1  s   1.
  #     ion occupancy
      ion_occ      1  s   0.5
  ################################################################################
  #
  #  Suggested additional basis functions. For production calculations,
  #  uncomment them one after another (the most important basis functions are
  #  listed first).
  #
  #  Basis constructed for dimers: 0.5 A, 0.7 A, 1.0 A, 1.5 A, 2.5 A
  #
  ################################################################################
  #  "First tier" - improvements: -1014.90 meV to -62.69 meV
       hydro 2 s 2.1
       hydro 2 p 3.5
  #  "Second tier" - improvements: -12.89 meV to -1.83 meV
      hydro 1 s 0.85
      hydro 2 p 3.7
      hydro 2 s 1.2
      hydro 3 d 7
  #  "Third tier" - improvements: -0.25 meV to -0.12 meV
  #    hydro 4 f 11.2
  #    hydro 3 p 4.8
  #    hydro 4 d 9
  #    hydro 3 s 3.2
  #
  
  
  -----------------------------------------------------------------------
  Completed first pass over input file control.in .
  -----------------------------------------------------------------------
  
  
  -----------------------------------------------------------------------
  Parsing geometry.in (first pass over file, find array dimensions only).
  The contents of geometry.in will be repeated verbatim below
  unless switched off by setting 'verbatim_writeout .false.' .
  in the first line of geometry.in .
  -----------------------------------------------------------------------
  
  #=======================================================
  # FHI-aims file: qmdata/data/geoms/203.in
  # Created using the Atomic Simulation Environment (ASE)
  # Wed Sep 21 12:30:23 2022
  #=======================================================
  lattice_vector 5.0000000000000000 0.0000000000000000 0.0000000000000000
  lattice_vector 0.0000000000000000 5.0000000000000000 0.0000000000000000
  lattice_vector 0.0000000000000000 0.0000000000000000 5.0000000000000000
  atom 0.0647822300000000 0.0054404000000000 0.0036141300000000 O
  atom -0.5438883100000000 -0.8531271200000000 -0.0303429000000000 H
  atom -0.4843368600000000 0.7667769600000000 -0.0270206000000000 H
  
  -----------------------------------------------------------------------
  Completed first pass over input file geometry.in .
  -----------------------------------------------------------------------
  

  Basic array size parameters:
  | Number of species                 :        2
  | Number of atoms                   :        3
  | Number of lattice vectors         :        3
  | Max. basis fn. angular momentum   :        4
  | Max. atomic/ionic basis occupied n:        2
  | Max. number of basis fn. types    :        2
  | Max. radial fns per species/type  :        8
  | Max. logarithmic grid size        :     1301
  | Max. radial integration grid size :       73
  | Max. angular integration grid size:      434
  | Max. angular grid division number :        8
  | Radial grid for Hartree potential :     1301
  | Number of spin channels           :        1

------------------------------------------------------------
          Reading file control.in.
------------------------------------------------------------
  XC: Using PBE gradient-corrected functionals.
  Spin treatment: No spin polarisation.
  Non-relativistic treatment of kinetic energy.
  Charge =   0.000000E+00: Neutral system requested explicitly.
  DFPT calculation will begin after the DFT/HF calculation.
  Convergence accuracy of self-consistent charge density:  0.1000E-05
  Found k-point grid:         1         1         1
  Threshold value for wave function integration:  0.1000E-07
 
  Reading configuration options for species O                   .
  | Found nuclear charge :   8.0000
  | Found atomic mass :    15.9994000000000      amu
  | Found l_max for Hartree potential  :   6
  | Found cutoff potl. onset [A], width [A], scale factor :    4.00000    2.00000    1.00000
  | Threshold for basis-dependent cutoff potential is   0.100000E-03
  | Found data for basic radial integration grid :    36 points, outermost radius =    7.000 A
  | Found multiplier for basic radial grid :   2
  | Found angular grid specification: user-specified.
  | Specified grid contains     6 separate shells.
  | Check grid settings after all constraints further below.
  | Found free-atom valence shell :  2 s   2.000
  | Found free-atom valence shell :  2 p   4.000
  | No ionic wave fns used. Skipping ion_occ.
  | No ionic wave fns used. Skipping ion_occ.
  | Found hydrogenic basis function :  2 p   1.800
  | Found hydrogenic basis function :  3 d   7.600
  | Found hydrogenic basis function :  3 s   6.400
  | Found hydrogenic basis function :  4 f  11.600
  | Found hydrogenic basis function :  3 p   6.200
  | Found hydrogenic basis function :  3 d   5.600
  | Found hydrogenic basis function :  5 g  17.600
  | Found hydrogenic basis function :  1 s   0.750
  Species O                   : Missing cutoff potential type.
  Defaulting to exp(1/x)/(1-x)^2 type cutoff potential.
  Species O : No 'logarithmic' tag. Using default grid for free atom:
  | Default logarithmic grid data [bohr] : 0.1000E-03 0.1000E+03 0.1012E+01
  Species O : On-site basis accuracy parameter (for Gram-Schmidt orthonormalisation) not specified.
  Using default value basis_acc =  0.1000000E-03.
  Species O                   : Using default innermost maximum threshold i_radial=  2 for radial functions.
  Species O                   : Default cutoff onset for free atom density etc. : 0.40000000E+01 AA.
  Species O                   : Basic radial grid will be enhanced according to radial_multiplier =   2, to contain    73 grid points.
 
  Reading configuration options for species H                   .
  | Found nuclear charge :   1.0000
  | Found atomic mass :    1.00794000000000      amu
  | Found l_max for Hartree potential  :   6
  | Found cutoff potl. onset [A], width [A], scale factor :    4.00000    2.00000    1.00000
  | Threshold for basis-dependent cutoff potential is   0.100000E-03
  | Found data for basic radial integration grid :    24 points, outermost radius =    7.000 A
  | Found multiplier for basic radial grid :   2
  | Found angular grid specification: user-specified.
  | Specified grid contains     6 separate shells.
  | Check grid settings after all constraints further below.
  | Found free-atom valence shell :  1 s   1.000
  | No ionic wave fns used. Skipping ion_occ.
  | Found hydrogenic basis function :  2 s   2.100
  | Found hydrogenic basis function :  2 p   3.500
  | Found hydrogenic basis function :  1 s   0.850
  | Found hydrogenic basis function :  2 p   3.700
  | Found hydrogenic basis function :  2 s   1.200
  | Found hydrogenic basis function :  3 d   7.000
  Species H                   : Missing cutoff potential type.
  Defaulting to exp(1/x)/(1-x)^2 type cutoff potential.
  Species H : No 'logarithmic' tag. Using default grid for free atom:
  | Default logarithmic grid data [bohr] : 0.1000E-03 0.1000E+03 0.1012E+01
  Species H : On-site basis accuracy parameter (for Gram-Schmidt orthonormalisation) not specified.
  Using default value basis_acc =  0.1000000E-03.
  Species H                   : Using default innermost maximum threshold i_radial=  2 for radial functions.
  Species H                   : Default cutoff onset for free atom density etc. : 0.40000000E+01 AA.
  Species H                   : Basic radial grid will be enhanced according to radial_multiplier =   2, to contain    49 grid points.
 
  Finished reading input file 'control.in'.
 
------------------------------------------------------------


------------------------------------------------------------
          Reading geometry description geometry.in.
------------------------------------------------------------
  | The smallest distance between any two atoms is         0.93920372 AA.
  | The first atom of this pair is atom number                      1 .
  | The second atom of this pair is atom number                     3 .
  | Wigner-Seitz cell of the first atom image           0     0     0 .
  | (The Wigner-Seitz cell of the second atom is 0 0 0  by definition.)

  Symmetry information by spglib:
  | Precision set to  0.1E-04
  | Number of Operations  : 1
  | Space group           : 1
  | International         : P1 N     j
  | Schoenflies           : C1^1
  Input structure read successfully.
  The structure contains        3 atoms,  and a total of         10.000 electrons.

  Input geometry:
  | Unit cell:
  |        5.00000000        0.00000000        0.00000000
  |        0.00000000        5.00000000        0.00000000
  |        0.00000000        0.00000000        5.00000000
  | Atomic structure:
  |       Atom                x [A]            y [A]            z [A]
  |    1: Species O             0.06478223        0.00544040        0.00361413
  |    2: Species H            -0.54388831       -0.85312712       -0.03034290
  |    3: Species H            -0.48433686        0.76677696       -0.02702060

  Lattice parameters for 3D lattice (in Angstroms) :     5.000000    5.000000    5.000000
  Angle(s) between unit vectors (in degrees)       :    90.000000   90.000000   90.000000


  Quantities derived from the lattice vectors (in Angstrom^-1):
  | Reciprocal lattice vector 1:  1.256637  0.000000  0.000000
  | Reciprocal lattice vector 2:  0.000000  1.256637  0.000000
  | Reciprocal lattice vector 3:  0.000000  0.000000  1.256637
  | Unit cell volume                               :   0.125000E+03  Angstrom^3

  Fractional coordinates:
                         L1                L2                L3
       atom_frac         0.01295645        0.00108808        0.00072283  O
       atom_frac        -0.10877766       -0.17062542       -0.00606858  H
       atom_frac        -0.09686737        0.15335539       -0.00540412  H

 
  Finished reading input file 'geometry.in'.
 

 
  Consistency checks for stacksize environment parameter are next.
 
  | Maximum stacksize for task 0: unlimited
  | Maximum stacksize for task 1: unlimited
  | Maximum stacksize for task 2: unlimited
  | Maximum stacksize for task 3: unlimited
  | Maximum stacksize for task 4: unlimited
  | Maximum stacksize for task 5: unlimited
  | Maximum stacksize for task 6: unlimited
  | Maximum stacksize for task 7: unlimited
  | Maximum stacksize for task 8: unlimited
  | Maximum stacksize for task 9: unlimited
  | Maximum stacksize for task 10: unlimited
  | Maximum stacksize for task 11: unlimited
  | Maximum stacksize for task 12: unlimited
  | Maximum stacksize for task 13: unlimited
  | Maximum stacksize for task 14: unlimited
  | Maximum stacksize for task 15: unlimited
  | Current stacksize for task 0: unlimited
  | Current stacksize for task 1: unlimited
  | Current stacksize for task 2: unlimited
  | Current stacksize for task 3: unlimited
  | Current stacksize for task 4: unlimited
  | Current stacksize for task 5: unlimited
  | Current stacksize for task 6: unlimited
  | Current stacksize for task 7: unlimited
  | Current stacksize for task 8: unlimited
  | Current stacksize for task 9: unlimited
  | Current stacksize for task 10: unlimited
  | Current stacksize for task 11: unlimited
  | Current stacksize for task 12: unlimited
  | Current stacksize for task 13: unlimited
  | Current stacksize for task 14: unlimited
  | Current stacksize for task 15: unlimited
 
  Consistency checks for the contents of control.in are next.
 
  MPI_IN_PLACE appears to work with this MPI implementation.
  | Keeping use_mpi_in_place .true. (see manual).
  Target number of points in a grid batch is not set. Defaulting to  100
  Method for grid partitioning is not set. Defaulting to parallel hash+maxmin partitioning.
  Batch size limit is not set. Defaulting to    200
  By default, will store active basis functions for each batch.
  If in need of memory, prune_basis_once .false. can be used to disable this option.
  communication_type for Hartree potential was not specified.
  Defaulting to calc_hartree .
  Defaulting to Pulay charge density mixer.
  Pulay mixer: Number of relevant iterations not set.
  Defaulting to    8 iterations.
  Pulay mixer: Number of initial linear mixing iterations not set.
  Defaulting to    0 iterations.
  Work space size for distributed Hartree potential not set.
  Defaulting to   0.200000E+03 MB.
  Mixing parameter for charge density mixing has not been set.
  Using default: charge_mix_param =     0.0500.
  The mixing parameter will be adjusted in iteration number     2 of the first full s.c.f. cycle only.
  Algorithm-dependent basis array size parameters:
  | n_max_pulay                         :        8
  Maximum number of self-consistency iterations not provided.
  Presetting  1000 iterations.
  Presetting      1001 iterations before the initial mixing cycle
  is restarted anyway using the sc_init_iter criterion / keyword.
  Presetting a factor      1.000 between actual scf density residual
  and density convergence criterion sc_accuracy_rho below which sc_init_iter
  takes no effect.
  Calculation of forces was not defined in control.in. No forces will be calculated.
  Geometry relaxation not requested: no relaxation will be performed.
  No accuracy limit for integral partition fn. given. Defaulting to  0.1000E-14.
  No occupation type (smearing scheme) given. Defaulting to Gaussian broadening, width =  0.1000E-01 eV.
  The width will be adjusted in iteration number     2 of the first full s.c.f. cycle only.
  S.C.F. convergence parameters will be adjusted in iteration number     2 of the first full s.c.f. cycle only.
  No accuracy for occupation numbers given. Defaulting to  0.1000E-12.
  No threshold value for occupation numbers given. Defaulting to  0.0000E+00.
  No accuracy for fermi level given. Defaulting to  0.1000E-19.
  Maximum # of iterations to find E_F not set. Defaulting to  200.
  Preferred method for the eigenvalue solver ('KS_method') not specified in 'control.in'.
  Calling BLACS routine to test compilation state
  Since ScaLAPACK support is enabled, defaulting to ELPA (via ELSI).
  Will not use alltoall communication since running on < 1024 CPUs.
  Threshold for basis singularities not set.
  Default threshold for basis singularities:  0.1000E-04
  partition_type (choice of integration weights) for integrals was not specified.
  | Using a version of the partition function of Stratmann and coworkers ('stratmann_sparse').
  | At each grid point, the set of atoms used to build the partition table is smoothly restricted to
  | only those atoms whose free-atom density would be non-zero at that grid point.
  Partitioning for Hartree potential was not defined. Using partition_type for integrals.
  | Adjusted default value of keyword multip_moments_threshold to:       0.10000000E-11
  | This value may affect high angular momentum components of the Hartree potential in periodic systems.
  Angular momentum expansion for Kerker preconditioner not set explicitly.
  | Using default value of   0
  No explicit requirement for turning off preconditioner.
  | By default, it will be turned off when the charge convergence reaches
  | sc_accuracy_rho  =   0.100000E-05
  No special mixing parameter while Kerker preconditioner is on.
  Using default: charge_mix_param =     0.0500.
  No q(lm)/r^(l+1) cutoff set for long-range Hartree potential.
  | Using default value of  0.100000E-09 .
  | Verify using the multipole_threshold keyword.
  Defaulting to new monopole extrapolation.
  Density update method: automatic selection selected.
  Using density matrix based charge density update.
  Using density matrix based charge density update.
  Using packed matrix style: index .
  Defaulting to use time-reversal symmetry for k-point grid.
  Charge integration errors on the 3D integration grid will be compensated
  by explicit normalization and distribution of residual charges.
  Use the "compensate_multipole_errors" flag to change this behaviour.
 
  Consistency checks for the contents of geometry.in are next.
 

  Range separation radius for Ewald summation (hartree_convergence_parameter):      5.00000000 bohr.
  Number of empty states per atom not set in control.in .
  | Since you are using a method that relies on the unoccupied spectrum
  | (MP2,GW,RPA et al.), will use the full Hamiltonian size (see below)
  | as the max. possible number of states (occupied plus empty).

  Structure-dependent array size parameters: 
  | Maximum number of distinct radial functions  :       18
  | Maximum number of basis functions            :       69
  | Number of Kohn-Sham states (occupied + empty):       69
------------------------------------------------------------

------------------------------------------------------------
          Preparing all fixed parts of the calculation.
------------------------------------------------------------
  Determining machine precision:
    2.225073858507201E-308
  Setting up grids for atomic and cluster calculations.

  Creating wave function, potential, and density for free atoms.
  Runtime choices for atomic solver:
  | atomic solver xc        : PBE
  | compute density gradient: 1
  | compute kinetic density : F

  Species: O

  List of occupied orbitals and eigenvalues:
    n    l              occ      energy [Ha]    energy [eV]
    1    0           2.0000       -18.898576      -514.2564
    2    0           2.0000        -0.878795       -23.9132
    2    1           4.0000        -0.332075        -9.0362


  Species: H

  List of occupied orbitals and eigenvalues:
    n    l              occ      energy [Ha]    energy [eV]
    1    0           1.0000        -0.238382        -6.4867


  Adding cutoff potential to free-atom effective potential.
  Creating fixed part of basis set: Ionic, confined, hydrogenic.
 
  O                    hydrogenic:
 
  List of hydrogenic basis orbitals: 
    n    l      effective z      eigenvalue [eV]  inner max. [A]     outer max. [A]     outer radius [A]   
    2    1         1.800000       -11.0118           1.178562           1.178562           5.567066
    3    2         7.600000       -87.3182           0.624125           0.624125           3.764702
    3    0         6.400000       -61.9209           0.061167           1.081902           4.522403
    4    3        11.600000      -114.4238           0.731631           0.731631           3.811008
    3    1         6.200000       -58.1113           0.255680           1.030270           4.522403
    3    2         5.600000       -47.4081           0.847233           0.847233           4.578029
    5    4        17.600000      -168.5799           0.749740           0.749740           3.629133
    1    0         0.750000        -7.6499           0.705284           0.705284           5.567066
 
 
  H                    hydrogenic:
 
  List of hydrogenic basis orbitals: 
    n    l      effective z      eigenvalue [eV]  inner max. [A]     outer max. [A]     outer radius [A]   
    2    0         2.100000       -14.9965           0.193243           1.317208           5.573719
    2    1         3.500000       -41.6672           0.602369           0.602369           4.259334
    1    0         0.850000        -9.8292           0.624871           0.624871           5.573719
    2    1         3.700000       -46.5653           0.573622           0.573622           4.105953
    2    0         1.200000        -4.5995           0.334980           2.228188           5.642276
    3    2         7.000000       -74.0753           0.680699           0.680699           3.958095
 
  Creating atomic-like basis functions for current effective potential.

  Species O                   :

  List of atomic basis orbitals and eigenvalues:
    n    l      energy [Ha]    energy [eV]    outer radius [A]
    1    0       -18.898576      -514.2564       1.807907
    2    0        -0.878795       -23.9132       5.366593
    2    1        -0.332075        -9.0362       5.499423


  Species H                   :

  List of atomic basis orbitals and eigenvalues:
    n    l      energy [Ha]    energy [eV]    outer radius [A]
    1    0        -0.238382        -6.4867       5.573719

  Assembling full basis from fixed parts.
  | Species O :   atomic orbital   1 s accepted.
  | Species O :    hydro orbital   3 s accepted.
  | Species O :   atomic orbital   2 s accepted.
  | Species O :    hydro orbital   1 s accepted.
  | Species O :    hydro orbital   3 p accepted.
  | Species O :   atomic orbital   2 p accepted.
  | Species O :    hydro orbital   2 p accepted.
  | Species O :    hydro orbital   3 d accepted.
  | Species O :    hydro orbital   3 d accepted.
  | Species O :    hydro orbital   4 f accepted.
  | Species O :    hydro orbital   5 g accepted.
  | Species H :   atomic orbital   1 s accepted.
  | Species H :    hydro orbital   2 s accepted.
  | Species H :    hydro orbital   1 s accepted.
  | Species H :    hydro orbital   2 s accepted.
  | Species H :    hydro orbital   2 p accepted.
  | Species H :    hydro orbital   2 p accepted.
  | Species H :    hydro orbital   3 d accepted.
 
  Basis size parameters after reduction:
  | Total number of radial functions:       18
  | Total number of basis functions :       69
 
  Per-task memory consumption for arrays in subroutine allocate_ext:
  |           4.499020MB.
  Testing on-site integration grid accuracy.
  |  Species  Function  <phi|h_atom|phi> (log., in eV)  <phi|h_atom|phi> (rad., in eV)
           1        1               -514.2564144315               -514.2564099626
           1        2                 15.1726678541                 15.1726530877
           1        3                -21.5447785304                -21.5447874973
           1        4                 14.4944558459                 14.4944698284
           1        5                 20.8882174564                 20.8882178906
           1        6                 -2.4850315909                 -2.4850322289
           1        7                 13.8600193195                 13.8599826966
           1        8                 45.8243383616                 45.8243383675
           1        9                 52.1840606465                 52.1840622440
           1       10                 85.4074185510                 85.4074185819
           1       11                142.0983717302                142.0983717339
           2       12                 -6.4869821809                 -6.4870742227
           2       13                 13.5044133542                 13.5041049177
           2       14                 32.7854418792                 32.7779770519
           2       15                 33.7995553101                 33.7152624900 ***
           2       16                 28.8558651799                 28.8558652046
           2       17                 59.6361831893                 59.6362535845
           2       18                 60.2733718049                 60.2733715484
 * Note: Onsite integrals marked "***" above are less accurate than
 * onsite_accuracy_threshold =    0.03000 eV. Usually, this is harmless.
 * When in doubt, tighten the "radial" and/or "radial_multiplier" flags to check.

  Preparing densities etc. for the partition functions (integrals / Hartree potential).

  Preparations completed.
  max(cpu_time)          :      0.144 s.
  Wall clock time (cpu1) :      0.144 s.
------------------------------------------------------------

  Initializing index lists of integration centers etc. from given atomic structure:
  Mapping all atomic coordinates to central unit cell.

  Initializing the k-points
  Using symmetry for reducing the k-points
  | k-points reduced from:        1 to        1
  | Number of k-points                             :         1
  | Consuming          0 KiB for k_phase_exx.
  The eigenvectors in the calculations are REAL.
  | Number of basis functions in the Hamiltonian integrals :      1574
  | Number of basis functions in a single unit cell        :        69
  | Number of centers in hartree potential         :       657
  | Number of centers in hartree multipole         :       243
  | Number of centers in electron density summation:       191
  | Number of centers in basis integrals           :       208
  | Number of centers in integrals                 :        81
  | Number of centers in hamiltonian               :       191
  | Consuming          1 KiB for k_phase.
  | Number of super-cells (origin) [n_cells]                     :        1331
  | Number of super-cells (after PM_index) [n_cells]             :          74
  | Number of super-cells in hamiltonian [n_cells_in_hamiltonian]:          74
  | Size of matrix packed + index [n_hamiltonian_matrix_size] :       62504
  | Size of matrix packed + index (no_symmetry):      123010

------------------------------------------------------------
          Begin self-consistency loop: Initialization.

          Date     :  20221003, Time     :  100331.646
------------------------------------------------------------
  | Estimated reciprocal-space cutoff momentum G_max:         1.90186217 bohr^-1 .
  | Reciprocal lattice points for long-range Hartree potential:      92
  Using simple linear distribution as default method for k-point parallelism.
  * Using 16 tasks for Scalapack Eigenvalue solver.
  Detailed listing of tasks and assigned k-points:
   Task     0 k-point     1 on mpsd-hpc-ibm-056
   Task     1 k-point     1 on mpsd-hpc-ibm-056
   Task     2 k-point     1 on mpsd-hpc-ibm-056
   Task     3 k-point     1 on mpsd-hpc-ibm-056
   Task     4 k-point     1 on mpsd-hpc-ibm-057
   Task     5 k-point     1 on mpsd-hpc-ibm-057
   Task     6 k-point     1 on mpsd-hpc-ibm-057
   Task     7 k-point     1 on mpsd-hpc-ibm-057
   Task     8 k-point     1 on mpsd-hpc-ibm-058
   Task     9 k-point     1 on mpsd-hpc-ibm-058
   Task    10 k-point     1 on mpsd-hpc-ibm-058
   Task    11 k-point     1 on mpsd-hpc-ibm-058
   Task    12 k-point     1 on mpsd-hpc-ibm-059
   Task    13 k-point     1 on mpsd-hpc-ibm-059
   Task    14 k-point     1 on mpsd-hpc-ibm-059
   Task    15 k-point     1 on mpsd-hpc-ibm-059
  K-point:     1 Tasks:    16 split into      4 X      4 BLACS grid
  Calculating block size based on n_basis =           69  max_nprow =            4  max_npcol =            4
  ScaLAPACK block size set to:           16
  Allocating        0.003 MB for ovlp
  Allocating        0.003 MB for ham
  Allocating        0.003 MB for eigenvec
  Required Scalapack workspace - INTEGER:            1  REAL:             1
  Partitioning the integration grid into batches with parallel hashing+maxmin method.
  | Number of batches:      517
  | Maximal batch size:     169
  | Minimal batch size:      52
  | Average batch size:      90.696
  | Standard deviation of batch sizes:      21.711

  Integration load balanced across    16 MPI tasks.
  Work distribution over tasks is as follows:
  Task     0 has       2912 integration points.
  Task     1 has       2956 integration points.
  Task     2 has       2924 integration points.
  Task     3 has       2920 integration points.
  Task     4 has       2919 integration points.
  Task     5 has       2928 integration points.
  Task     6 has       2906 integration points.
  Task     7 has       2925 integration points.
  Task     8 has       2944 integration points.
  Task     9 has       2987 integration points.
  Task    10 has       2912 integration points.
  Task    11 has       2977 integration points.
  Task    12 has       2906 integration points.
  Task    13 has       2932 integration points.
  Task    14 has       2946 integration points.
  Task    15 has       2896 integration points.
  Initializing partition tables, free-atom densities, potentials, etc. across the integration grid (initialize_grid_storage).
  | initialize_grid_storage: Actual outermost partition radius vs. multipole_radius_free
  | (-- VB: in principle, multipole_radius_free should be larger, hence this output)
  | Species        1: Confinement radius =              6.000000000000000 AA, multipole_radius_free =              6.064445521808699 AA.
  | Species        1: outer_partition_radius set to              6.064445521808699 AA .
  | Species        2: Confinement radius =              6.000000000000000 AA, multipole_radius_free =              6.071692442739658 AA.
  | Species        2: outer_partition_radius set to              6.071692442739658 AA .
  | The sparse table of interatomic distances needs        419.76 kbyte instead of       346.11 kbyte of memory.
  | Using the partition_type stratmann_smoother will reduce your memory usage.
  | Net number of integration points:    46890
  | of which are non-zero points    :    37655
  | Numerical average free-atom electrostatic potential    :     -1.29049410 eV
  Renormalizing the initial density to the exact electron count on the 3D integration grid.
  | Initial density: Formal number of electrons (from input files) :      10.0000000000
  | Integrated number of electrons on 3D grid     :      10.0000054503
  | Charge integration error                      :       0.0000054503
  | Normalization factor for density and gradient :       0.9999994550
  Renormalizing the free-atom superposition density to the exact electron count on the 3D integration grid.
  | Formal number of electrons (from input files) :      10.0000000000
  | Integrated number of electrons on 3D grid     :      10.0000054503
  | Charge integration error                      :       0.0000054503
  | Normalization factor for density and gradient :       0.9999994550
  Obtaining max. number of non-zero basis functions in each batch (get_n_compute_maxes).
  | Maximal number of non-zero basis functions:      381 in task     0
  | Maximal number of non-zero basis functions:      382 in task     1
  | Maximal number of non-zero basis functions:      418 in task     2
  | Maximal number of non-zero basis functions:      387 in task     3
  | Maximal number of non-zero basis functions:      389 in task     4
  | Maximal number of non-zero basis functions:      363 in task     5
  | Maximal number of non-zero basis functions:      349 in task     6
  | Maximal number of non-zero basis functions:      345 in task     7
  | Maximal number of non-zero basis functions:      419 in task     8
  | Maximal number of non-zero basis functions:      384 in task     9
  | Maximal number of non-zero basis functions:      349 in task    10
  | Maximal number of non-zero basis functions:      378 in task    11
  | Maximal number of non-zero basis functions:      375 in task    12
  | Maximal number of non-zero basis functions:      389 in task    13
  | Maximal number of non-zero basis functions:      422 in task    14
  | Maximal number of non-zero basis functions:      385 in task    15
  Integrating Hamiltonian matrix: batch-based integration.
  Time summed over all CPUs for integration: real work        1.102 s, elapsed        1.225 s
  Integrating overlap matrix.
  Time summed over all CPUs for integration: real work        0.608 s, elapsed        0.648 s
  Deallocating overlap matrix.

  Updating Kohn-Sham eigenvalues and eigenvectors using ELSI and the ELPA eigensolver.
  Singularity check in k-point 1 (analysis for other k-points may follow below):
  Overlap matrix is not singular
  | Lowest and highest eigenvalues :  0.2257E-03,  0.6939E+01
  Finished singularity check of overlap matrix
  | Time :     0.004 s
  Starting ELPA eigensolver
  Finished Cholesky decomposition
  | Time :     0.002 s
  Finished transformation to standard eigenproblem
  | Time :     0.001 s
  Finished solving standard eigenproblem
  | Time :     0.004 s
  Finished back-transformation of eigenvectors
  | Time :     0.000 s

  Obtaining occupation numbers and electronic chemical potential using ELSI.
  | Note that, for insulating systems, the printed 'chemical potential' value is not uniquely defined.
  | It can be anywhere in the energy gap, as long as it correctly separates occupied and unoccupied states.
  | In systems with a gap, the physically relevant chemical potential is the VBM or HOMO.

  | Chemical potential (Fermi level):    -6.19451675 eV
  Writing Kohn-Sham eigenvalues.

  State    Occupation    Eigenvalue [Ha]    Eigenvalue [eV]
      1       2.00000         -18.997537         -516.94930
      2       2.00000          -1.081485          -29.42871
      3       2.00000          -0.619347          -16.85329
      4       2.00000          -0.495069          -13.47152
      5       2.00000          -0.430493          -11.71432
      6       0.00000          -0.118483           -3.22410
      7       0.00000           0.041175            1.12042
      8       0.00000           0.086933            2.36557
      9       0.00000           0.187615            5.10527
     10       0.00000           0.202011            5.49700
     11       0.00000           0.203832            5.54655
     12       0.00000           0.333443            9.07345
     13       0.00000           0.418749           11.39473
     14       0.00000           0.440706           11.99221
     15       0.00000           0.441257           12.00722
     16       0.00000           0.524189           14.26391
     17       0.00000           0.553256           15.05487
     18       0.00000           0.636771           17.32742
     19       0.00000           0.878597           23.90785
     20       0.00000           0.924024           25.14397
     21       0.00000           1.056768           28.75611
     22       0.00000           1.081198           29.42088
     23       0.00000           1.085960           29.55047
     24       0.00000           1.154474           31.41485
     25       0.00000           1.352551           36.80479
     26       0.00000           1.401028           38.12391
     27       0.00000           1.422421           38.70604
     28       0.00000           1.735996           47.23885
     29       0.00000           2.129792           57.95459
     30       0.00000           2.145181           58.37335
     31       0.00000           2.199400           59.84873
     32       0.00000           2.250480           61.23868
     33       0.00000           2.346392           63.84857
     34       0.00000           2.491852           67.80674
     35       0.00000           2.657551           72.31565
     36       0.00000           2.676549           72.83261
     37       0.00000           2.771236           75.40916
     38       0.00000           2.788431           75.87708
     39       0.00000           2.921615           79.50120
     40       0.00000           3.148551           85.67642
     41       0.00000           3.277583           89.18756
     42       0.00000           3.282855           89.33103
     43       0.00000           3.435053           93.47255
     44       0.00000           3.522681           95.85702
     45       0.00000           3.658673           99.55757
     46       0.00000           3.688538          100.37023
     47       0.00000           3.766787          102.49950
     48       0.00000           3.948702          107.44964
     49       0.00000           4.013229          109.20551
     50       0.00000           4.208253          114.51240
     51       0.00000           4.253235          115.73640
     52       0.00000           5.051270          137.45205
     53       0.00000           5.060337          137.69877
     54       0.00000           5.077367          138.16218
     55       0.00000           5.399182          146.91921
     56       0.00000           5.402069          146.99777
     57       0.00000           5.474144          148.95905
     58       0.00000           5.640107          153.47512
     59       0.00000           5.775156          157.14999
     60       0.00000           6.131928          166.85824
     61       0.00000           6.279654          170.87808
     62       0.00000           6.447247          175.43851
     63       0.00000           6.992228          190.26820
     64       0.00000           7.005765          190.63658
     65       0.00000           7.172665          195.17816
     66       0.00000           7.714867          209.93221
     67       0.00000           7.857999          213.82702
     68       0.00000           8.383818          228.13530
     69       0.00000           8.617938          234.50601

  Highest occupied state (VBM) at    -11.71431517 eV (relative to internal zero)
  | Occupation number:      2.00000000
  | K-point:       1 at    0.000000    0.000000    0.000000 (in units of recip. lattice)

  Lowest unoccupied state (CBM) at    -3.22409972 eV (relative to internal zero)
  | Occupation number:      0.00000000
  | K-point:       1 at    0.000000    0.000000    0.000000 (in units of recip. lattice)

  ESTIMATED overall HOMO-LUMO gap:      8.49021546 eV between HOMO at k-point 1 and LUMO at k-point 1
  The gap value is above 0.2 eV. Unless you are using a very sparse k-point grid,
  this system is most likely an insulator or a semiconductor.
  Calculating total energy contributions from superposition of free atom densities.

  Total energy components:
  | Sum of eigenvalues            :         -43.24786454 Ha       -1176.83427072 eV
  | XC energy correction          :          -9.00167232 Ha        -244.94796651 eV
  | XC potential correction       :          11.57344334 Ha         314.92941679 eV
  | Free-atom electrostatic energy:         -35.77586369 Ha        -973.51078276 eV
  | Hartree energy correction     :           0.00000000 Ha           0.00000000 eV
  | Entropy correction            :           0.00000000 Ha           0.00000000 eV
  | ---------------------------
  | Total energy                  :         -76.45195720 Ha       -2080.36360320 eV
  | Total energy, T -> 0          :         -76.45195720 Ha       -2080.36360320 eV  <-- do not rely on this value for anything but (periodic) metals
  | Electronic free energy        :         -76.45195720 Ha       -2080.36360320 eV

  Derived energy quantities:
  | Kinetic energy                :          75.51049929 Ha        2054.74522996 eV
  | Electrostatic energy          :        -142.96078418 Ha       -3890.16086665 eV
  | Energy correction for multipole
  | error in Hartree potential    :           0.00000000 Ha           0.00000000 eV
  | Sum of eigenvalues per atom                           :        -392.27809024 eV
  | Total energy (T->0) per atom                          :        -693.45453440 eV  <-- do not rely on this value for anything but (periodic) metals
  | Electronic free energy per atom                       :        -693.45453440 eV
  Initialize hartree_potential_storage
  Max. number of atoms included in rho_multipole:            3

  End scf initialization - timings             :  max(cpu_time)    wall_clock(cpu1)
  | Time for scf. initialization                :        0.272 s           0.271 s
  | Boundary condition initialization           :        0.048 s           0.047 s
  | Integration                                 :        0.124 s           0.122 s
  | Solution of K.-S. eqns.                     :        0.016 s           0.014 s
  | Grid partitioning                           :        0.032 s           0.031 s
  | Preloading free-atom quantities on grid     :        0.084 s           0.082 s
  | Free-atom superposition energy              :        0.012 s           0.011 s
  | Total energy evaluation                     :        0.000 s           0.001 s

  Partial memory accounting:
  | Current value for overall tracked memory usage:
  |   Minimum:        0.722 MB (on task  5)
  |   Maximum:        0.726 MB (on task  0)
  |   Average:        0.723 MB
  | Peak value for overall tracked memory usage:
  |   Minimum:        3.449 MB (on task  7 after allocating wave)
  |   Maximum:        4.199 MB (on task 14 after allocating wave)
  |   Average:        3.805 MB
  | Largest tracked array allocation so far:
  |   Minimum:        0.908 MB (hamiltonian_shell on task  7)
  |   Maximum:        1.359 MB (hamiltonian_shell on task 14)
  |   Average:        1.118 MB
  Note:  These values currently only include a subset of arrays which are explicitly tracked.
  The "true" memory usage will be greater.
------------------------------------------------------------
  Evaluating new KS density using the density matrix
  Evaluating density matrix
  Finished density matrix calculation
  | Time :     0.000 s
  Time summed over all CPUs for getting density from density matrix: real work        2.064 s, elapsed        2.351 s
  Integration grid: deviation in total charge (<rho> - N_e) =   0.000000E+00

  Time for density update prior                :  max(cpu_time)    wall_clock(cpu1)
  | self-consistency iterative process          :        0.152 s           0.150 s

------------------------------------------------------------
          Begin self-consistency iteration #    1

  Date     :  20221003, Time     :  100332.071
------------------------------------------------------------
  Pulay mixing of updated and previous charge densities.
  Renormalizing the density to the exact electron count on the 3D integration grid.
  | Formal number of electrons (from input files) :      10.0000000000
  | Integrated number of electrons on 3D grid     :       9.9996587996
  | Charge integration error                      :      -0.0003412004
  | Normalization factor for density and gradient :       1.0000341212

  Evaluating partitioned Hartree potential by multipole expansion.
  | Original multipole sum: apparent total charge =   0.478580E-14
  | Sum of charges compensated after spline to logarithmic grids =   0.963816E-07
  | Analytical far-field extrapolation by fixed multipoles:
  | Hartree multipole sum: apparent total charge =   0.478887E-14
  Summing up the Hartree potential.
  Time summed over all CPUs for potential: real work        2.501 s, elapsed        2.914 s
  | RMS charge density error from multipole expansion :   0.110611E-03
  | Average real-space part of the electrostatic potential :      0.00946809 eV

  Integrating Hamiltonian matrix: batch-based integration.
  Time summed over all CPUs for integration: real work        1.057 s, elapsed        1.118 s

  Updating Kohn-Sham eigenvalues and eigenvectors using ELSI and the ELPA eigensolver.
  Starting ELPA eigensolver
  Finished transformation to standard eigenproblem
  | Time :     0.000 s
  Finished solving standard eigenproblem
  | Time :     0.004 s
  Finished back-transformation of eigenvectors
  | Time :     0.000 s

  Obtaining occupation numbers and electronic chemical potential using ELSI.
  | Note that, for insulating systems, the printed 'chemical potential' value is not uniquely defined.
  | It can be anywhere in the energy gap, as long as it correctly separates occupied and unoccupied states.
  | In systems with a gap, the physically relevant chemical potential is the VBM or HOMO.

  | Chemical potential (Fermi level):    -5.73508281 eV
  Writing Kohn-Sham eigenvalues.

  State    Occupation    Eigenvalue [Ha]    Eigenvalue [eV]
      1       2.00000         -18.967911         -516.14312
      2       2.00000          -1.067658          -29.05244
      3       2.00000          -0.607749          -16.53768
      4       2.00000          -0.481096          -13.09128
      5       2.00000          -0.415722          -11.31237
      6       0.00000          -0.116958           -3.18259
      7       0.00000           0.044777            1.21843
      8       0.00000           0.089878            2.44570
      9       0.00000           0.190784            5.19150
     10       0.00000           0.204366            5.56108
     11       0.00000           0.205714            5.59777
     12       0.00000           0.335560            9.13106
     13       0.00000           0.421221           11.46201
     14       0.00000           0.443370           12.06471
     15       0.00000           0.443937           12.08015
     16       0.00000           0.527830           14.36300
     17       0.00000           0.555935           15.12775
     18       0.00000           0.639967           17.41439
     19       0.00000           0.880368           23.95604
     20       0.00000           0.926853           25.22095
     21       0.00000           1.060809           28.86609
     22       0.00000           1.085064           29.52609
     23       0.00000           1.090288           29.66825
     24       0.00000           1.161341           31.60169
     25       0.00000           1.357973           36.95232
     26       0.00000           1.410138           38.37180
     27       0.00000           1.433570           39.00942
     28       0.00000           1.742924           47.42739
     29       0.00000           2.134730           58.08896
     30       0.00000           2.150385           58.51495
     31       0.00000           2.204355           59.98356
     32       0.00000           2.257824           61.43851
     33       0.00000           2.351035           63.97493
     34       0.00000           2.500712           68.04784
     35       0.00000           2.661485           72.42270
     36       0.00000           2.683023           73.00877
     37       0.00000           2.774484           75.49754
     38       0.00000           2.795083           76.05809
     39       0.00000           2.931203           79.76210
     40       0.00000           3.158599           85.94985
     41       0.00000           3.284053           89.36363
     42       0.00000           3.290277           89.53299
     43       0.00000           3.441872           93.65811
     44       0.00000           3.528530           96.01618
     45       0.00000           3.667017           99.78461
     46       0.00000           3.693881          100.51560
     47       0.00000           3.774442          102.70780
     48       0.00000           3.959763          107.75063
     49       0.00000           4.015505          109.26744
     50       0.00000           4.217293          114.75839
     51       0.00000           4.263637          116.01947
     52       0.00000           5.059863          137.68587
     53       0.00000           5.067159          137.88441
     54       0.00000           5.084798          138.36440
     55       0.00000           5.408202          147.16466
     56       0.00000           5.409409          147.19751
     57       0.00000           5.482209          149.17850
     58       0.00000           5.648576          153.70556
     59       0.00000           5.784059          157.39224
     60       0.00000           6.140931          167.10325
     61       0.00000           6.289556          171.14752
     62       0.00000           6.454668          175.64045
     63       0.00000           7.002195          190.53942
     64       0.00000           7.014837          190.88342
     65       0.00000           7.183297          195.46747
     66       0.00000           7.726219          210.24112
     67       0.00000           7.867296          214.08003
     68       0.00000           8.394464          228.42500
     69       0.00000           8.628816          234.80204

  Highest occupied state (VBM) at    -11.31237494 eV (relative to internal zero)
  | Occupation number:      2.00000000
  | K-point:       1 at    0.000000    0.000000    0.000000 (in units of recip. lattice)

  Lowest unoccupied state (CBM) at    -3.18259232 eV (relative to internal zero)
  | Occupation number:      0.00000000
  | K-point:       1 at    0.000000    0.000000    0.000000 (in units of recip. lattice)

  ESTIMATED overall HOMO-LUMO gap:      8.12978262 eV between HOMO at k-point 1 and LUMO at k-point 1
  The gap value is above 0.2 eV. Unless you are using a very sparse k-point grid,
  this system is most likely an insulator or a semiconductor.

  Total energy components:
  | Sum of eigenvalues            :         -43.08027006 Ha       -1172.27379307 eV
  | XC energy correction          :          -9.02109928 Ha        -245.47660104 eV
  | XC potential correction       :          11.59870486 Ha         315.61681755 eV
  | Free-atom electrostatic energy:         -35.77586369 Ha        -973.51078276 eV
  | Hartree energy correction     :          -0.15972745 Ha          -4.34640497 eV
  | Entropy correction            :           0.00000000 Ha           0.00000000 eV
  | ---------------------------
  | Total energy                  :         -76.43825562 Ha       -2079.99076428 eV
  | Total energy, T -> 0          :         -76.43825562 Ha       -2079.99076428 eV  <-- do not rely on this value for anything but (periodic) metals
  | Electronic free energy        :         -76.43825562 Ha       -2079.99076428 eV

  Derived energy quantities:
  | Kinetic energy                :          75.63310917 Ha        2058.08161461 eV
  | Electrostatic energy          :        -143.05026552 Ha       -3892.59577785 eV
  | Energy correction for multipole
  | error in Hartree potential    :          -0.00011575 Ha          -0.00314961 eV
  | Sum of eigenvalues per atom                           :        -390.75793102 eV
  | Total energy (T->0) per atom                          :        -693.33025476 eV  <-- do not rely on this value for anything but (periodic) metals
  | Electronic free energy per atom                       :        -693.33025476 eV
  Evaluating new KS density using the density matrix
  Evaluating density matrix
  Finished density matrix calculation
  | Time :     0.000 s
  Time summed over all CPUs for getting density from density matrix: real work        2.016 s, elapsed        2.262 s
  Integration grid: deviation in total charge (<rho> - N_e) =   5.329071E-15

  Self-consistency convergence accuracy:
  | Change of charge density      :  0.3140E+00
  | Change of unmixed KS density  :  0.9102E+01
  | Change of sum of eigenvalues  :  0.4560E+01 eV
  | Change of total energy        :  0.3728E+00 eV


------------------------------------------------------------
  End self-consistency iteration #     1       :  max(cpu_time)    wall_clock(cpu1)
  | Time for this iteration                     :        0.528 s           0.528 s
  | Charge density update                       :        0.144 s           0.145 s
  | Density mixing & preconditioning            :        0.104 s           0.101 s
  | Hartree multipole update                    :        0.004 s           0.004 s
  | Hartree multipole summation                 :        0.196 s           0.193 s
  | Integration                                 :        0.076 s           0.072 s
  | Solution of K.-S. eqns.                     :        0.008 s           0.007 s
  | Total energy evaluation                     :        0.008 s           0.001 s

  Partial memory accounting:
  | Current value for overall tracked memory usage:
  |   Minimum:        0.722 MB (on task  5)
  |   Maximum:        0.726 MB (on task  0)
  |   Average:        0.723 MB
  | Peak value for overall tracked memory usage:
  |   Minimum:        4.299 MB (on task  7 after allocating gradient_basis_wave)
  |   Maximum:        5.345 MB (on task 14 after allocating gradient_basis_wave)
  |   Average:        4.798 MB
  | Largest tracked array allocation so far:
  |   Minimum:        1.334 MB (gradient_basis_wave on task  7)
  |   Maximum:        1.632 MB (gradient_basis_wave on task 14)
  |   Average:        1.478 MB
  Note:  These values currently only include a subset of arrays which are explicitly tracked.
  The "true" memory usage will be greater.
------------------------------------------------------------

------------------------------------------------------------
          Begin self-consistency iteration #    2

  Date     :  20221003, Time     :  100332.603
------------------------------------------------------------
  Pulay mixing of updated and previous charge densities.
  Renormalizing the density to the exact electron count on the 3D integration grid.
  | Formal number of electrons (from input files) :      10.0000000000
  | Integrated number of electrons on 3D grid     :       9.9971948481
  | Charge integration error                      :      -0.0028051519
  | Normalization factor for density and gradient :       1.0002805939

  Evaluating partitioned Hartree potential by multipole expansion.
  | Original multipole sum: apparent total charge =  -0.157426E-14
  | Sum of charges compensated after spline to logarithmic grids =   0.837181E-06
  | Analytical far-field extrapolation by fixed multipoles:
  | Hartree multipole sum: apparent total charge =  -0.138977E-14
  Summing up the Hartree potential.
  Time summed over all CPUs for potential: real work        2.784 s, elapsed        2.921 s
  | RMS charge density error from multipole expansion :   0.987403E-03
  | Average real-space part of the electrostatic potential :      0.08317322 eV

  Integrating Hamiltonian matrix: batch-based integration.
  Time summed over all CPUs for integration: real work        1.071 s, elapsed        1.164 s

  Updating Kohn-Sham eigenvalues and eigenvectors using ELSI and the ELPA eigensolver.
  Starting ELPA eigensolver
  Finished transformation to standard eigenproblem
  | Time :     0.001 s
  Finished solving standard eigenproblem
  | Time :     0.004 s
  Finished back-transformation of eigenvectors
  | Time :     0.001 s

  Obtaining occupation numbers and electronic chemical potential using ELSI.
  | Note that, for insulating systems, the printed 'chemical potential' value is not uniquely defined.
  | It can be anywhere in the energy gap, as long as it correctly separates occupied and unoccupied states.
  | In systems with a gap, the physically relevant chemical potential is the VBM or HOMO.

  | Chemical potential (Fermi level):    -8.12381354 eV
  Highest occupied state (VBM) at     -8.37119276 eV (relative to internal zero)
  | Occupation number:      2.00000000
  | K-point:       1 at    0.000000    0.000000    0.000000 (in units of recip. lattice)

  Lowest unoccupied state (CBM) at    -2.85151435 eV (relative to internal zero)
  | Occupation number:      0.00000000
  | K-point:       1 at    0.000000    0.000000    0.000000 (in units of recip. lattice)

  ESTIMATED overall HOMO-LUMO gap:      5.51967841 eV between HOMO at k-point 1 and LUMO at k-point 1
  The gap value is above 0.2 eV. Unless you are using a very sparse k-point grid,
  this system is most likely an insulator or a semiconductor.

  Checking to see if s.c.f. parameters should be adjusted.
  The system likely has a gap. Increased the default Pulay mixing parameter (charge_mix_param). Value:   0.200000 .
  Kept the default occupation width. Value:   0.010000 eV.

  Total energy components:
  | Sum of eigenvalues            :         -41.84906841 Ha       -1138.77109141 eV
  | XC energy correction          :          -9.17157012 Ha        -249.57112105 eV
  | XC potential correction       :          11.79436491 Ha         320.94099846 eV
  | Free-atom electrostatic energy:         -35.77586369 Ha        -973.51078276 eV
  | Hartree energy correction     :          -1.38016778 Ha         -37.55627608 eV
  | Entropy correction            :          -0.00000000 Ha          -0.00000000 eV
  | ---------------------------
  | Total energy                  :         -76.38230509 Ha       -2078.46827284 eV
  | Total energy, T -> 0          :         -76.38230509 Ha       -2078.46827284 eV  <-- do not rely on this value for anything but (periodic) metals
  | Electronic free energy        :         -76.38230509 Ha       -2078.46827284 eV

  Derived energy quantities:
  | Kinetic energy                :          76.46083948 Ha        2080.60530231 eV
  | Electrostatic energy          :        -143.67157445 Ha       -3909.50245410 eV
  | Energy correction for multipole
  | error in Hartree potential    :          -0.00100442 Ha          -0.02733174 eV
  | Sum of eigenvalues per atom                           :        -379.59036380 eV
  | Total energy (T->0) per atom                          :        -692.82275761 eV  <-- do not rely on this value for anything but (periodic) metals
  | Electronic free energy per atom                       :        -692.82275761 eV
  Evaluating new KS density using the density matrix
  Evaluating density matrix
  Finished density matrix calculation
  | Time :     0.000 s
  Time summed over all CPUs for getting density from density matrix: real work        2.083 s, elapsed        2.334 s
  Integration grid: deviation in total charge (<rho> - N_e) =  -7.105427E-15

  Self-consistency convergence accuracy:
  | Change of charge density      :  0.2829E+00
  | Change of unmixed KS density  :  0.2369E-01
  | Change of sum of eigenvalues  :  0.3350E+02 eV
  | Change of total energy        :  0.1522E+01 eV


------------------------------------------------------------
  End self-consistency iteration #     2       :  max(cpu_time)    wall_clock(cpu1)
  | Time for this iteration                     :        0.564 s           0.562 s
  | Charge density update                       :        0.152 s           0.149 s
  | Density mixing & preconditioning            :        0.132 s           0.129 s
  | Hartree multipole update                    :        0.004 s           0.003 s
  | Hartree multipole summation                 :        0.196 s           0.196 s
  | Integration                                 :        0.076 s           0.075 s
  | Solution of K.-S. eqns.                     :        0.008 s           0.007 s
  | Total energy evaluation                     :        0.004 s           0.002 s

  Partial memory accounting:
  | Current value for overall tracked memory usage:
  |   Minimum:        0.722 MB (on task  5)
  |   Maximum:        0.727 MB (on task  0)
  |   Average:        0.723 MB
  | Peak value for overall tracked memory usage:
  |   Minimum:        4.300 MB (on task  7 after allocating gradient_basis_wave)
  |   Maximum:        5.346 MB (on task 14 after allocating gradient_basis_wave)
  |   Average:        4.798 MB
  | Largest tracked array allocation so far:
  |   Minimum:        1.334 MB (gradient_basis_wave on task  7)
  |   Maximum:        1.632 MB (gradient_basis_wave on task 14)
  |   Average:        1.478 MB
  Note:  These values currently only include a subset of arrays which are explicitly tracked.
  The "true" memory usage will be greater.
------------------------------------------------------------

------------------------------------------------------------
          Begin self-consistency iteration #    3

  Date     :  20221003, Time     :  100333.168
------------------------------------------------------------
  Pulay mixing of updated and previous charge densities.
  Renormalizing the density to the exact electron count on the 3D integration grid.
  | Formal number of electrons (from input files) :      10.0000000000
  | Integrated number of electrons on 3D grid     :       9.9982848755
  | Charge integration error                      :      -0.0017151245
  | Normalization factor for density and gradient :       1.0001715419

  Evaluating partitioned Hartree potential by multipole expansion.
  | Original multipole sum: apparent total charge =  -0.312391E-14
  | Sum of charges compensated after spline to logarithmic grids =   0.577365E-06
  | Analytical far-field extrapolation by fixed multipoles:
  | Hartree multipole sum: apparent total charge =  -0.292713E-14
  Summing up the Hartree potential.
  Time summed over all CPUs for potential: real work        2.865 s, elapsed        3.094 s
  | RMS charge density error from multipole expansion :   0.149176E-02
  | Average real-space part of the electrostatic potential :      0.09277487 eV

  Integrating Hamiltonian matrix: batch-based integration.
  Time summed over all CPUs for integration: real work        1.101 s, elapsed        1.205 s

  Updating Kohn-Sham eigenvalues and eigenvectors using ELSI and the ELPA eigensolver.
  Starting ELPA eigensolver
  Finished transformation to standard eigenproblem
  | Time :     0.001 s
  Finished solving standard eigenproblem
  | Time :     0.004 s
  Finished back-transformation of eigenvectors
  | Time :     0.000 s

  Obtaining occupation numbers and electronic chemical potential using ELSI.
  | Note that, for insulating systems, the printed 'chemical potential' value is not uniquely defined.
  | It can be anywhere in the energy gap, as long as it correctly separates occupied and unoccupied states.
  | In systems with a gap, the physically relevant chemical potential is the VBM or HOMO.

  | Chemical potential (Fermi level):    -3.22504460 eV
  Highest occupied state (VBM) at     -8.88970676 eV (relative to internal zero)
  | Occupation number:      2.00000000
  | K-point:       1 at    0.000000    0.000000    0.000000 (in units of recip. lattice)

  Lowest unoccupied state (CBM) at    -2.88009101 eV (relative to internal zero)
  | Occupation number:      0.00000000
  | K-point:       1 at    0.000000    0.000000    0.000000 (in units of recip. lattice)

  ESTIMATED overall HOMO-LUMO gap:      6.00961574 eV between HOMO at k-point 1 and LUMO at k-point 1
  The gap value is above 0.2 eV. Unless you are using a very sparse k-point grid,
  this system is most likely an insulator or a semiconductor.

  Total energy components:
  | Sum of eigenvalues            :         -42.14600372 Ha       -1146.85111235 eV
  | XC energy correction          :          -9.13519664 Ha        -248.58134829 eV
  | XC potential correction       :          11.74761733 Ha         319.66893220 eV
  | Free-atom electrostatic energy:         -35.77586369 Ha        -973.51078276 eV
  | Hartree energy correction     :          -1.07668615 Ha         -29.29812080 eV
  | Entropy correction            :           0.00000000 Ha           0.00000000 eV
  | ---------------------------
  | Total energy                  :         -76.38613287 Ha       -2078.57243200 eV
  | Total energy, T -> 0          :         -76.38613287 Ha       -2078.57243200 eV  <-- do not rely on this value for anything but (periodic) metals
  | Electronic free energy        :         -76.38613287 Ha       -2078.57243200 eV

  Derived energy quantities:
  | Kinetic energy                :          76.01445020 Ha        2068.45843205 eV
  | Electrostatic energy          :        -143.26538643 Ha       -3898.44951576 eV
  | Energy correction for multipole
  | error in Hartree potential    :          -0.00074379 Ha          -0.02023947 eV
  | Sum of eigenvalues per atom                           :        -382.28370412 eV
  | Total energy (T->0) per atom                          :        -692.85747733 eV  <-- do not rely on this value for anything but (periodic) metals
  | Electronic free energy per atom                       :        -692.85747733 eV
  Evaluating new KS density using the density matrix
  Evaluating density matrix
  Finished density matrix calculation
  | Time :     0.000 s
  Time summed over all CPUs for getting density from density matrix: real work        2.028 s, elapsed        2.605 s
  Integration grid: deviation in total charge (<rho> - N_e) =   7.105427E-15

  Self-consistency convergence accuracy:
  | Change of charge density      :  0.1195E+00
  | Change of unmixed KS density  :  0.1840E+00
  | Change of sum of eigenvalues  : -0.8080E+01 eV
  | Change of total energy        : -0.1042E+00 eV


------------------------------------------------------------
  End self-consistency iteration #     3       :  max(cpu_time)    wall_clock(cpu1)
  | Time for this iteration                     :        0.548 s           0.548 s
  | Charge density update                       :        0.168 s           0.166 s
  | Density mixing & preconditioning            :        0.088 s           0.085 s
  | Hartree multipole update                    :        0.004 s           0.004 s
  | Hartree multipole summation                 :        0.208 s           0.205 s
  | Integration                                 :        0.080 s           0.079 s
  | Solution of K.-S. eqns.                     :        0.008 s           0.007 s
  | Total energy evaluation                     :        0.004 s           0.001 s

  Partial memory accounting:
  | Current value for overall tracked memory usage:
  |   Minimum:        0.722 MB (on task  5)
  |   Maximum:        0.727 MB (on task  0)
  |   Average:        0.723 MB
  | Peak value for overall tracked memory usage:
  |   Minimum:        4.300 MB (on task  7 after allocating gradient_basis_wave)
  |   Maximum:        5.346 MB (on task 14 after allocating gradient_basis_wave)
  |   Average:        4.799 MB
  | Largest tracked array allocation so far:
  |   Minimum:        1.334 MB (gradient_basis_wave on task  7)
  |   Maximum:        1.632 MB (gradient_basis_wave on task 14)
  |   Average:        1.478 MB
  Note:  These values currently only include a subset of arrays which are explicitly tracked.
  The "true" memory usage will be greater.
------------------------------------------------------------

------------------------------------------------------------
          Begin self-consistency iteration #    4

  Date     :  20221003, Time     :  100333.719
------------------------------------------------------------
  Pulay mixing of updated and previous charge densities.
  Renormalizing the density to the exact electron count on the 3D integration grid.
  | Formal number of electrons (from input files) :      10.0000000000
  | Integrated number of electrons on 3D grid     :       9.9966010510
  | Charge integration error                      :      -0.0033989490
  | Normalization factor for density and gradient :       1.0003400105

  Evaluating partitioned Hartree potential by multipole expansion.
  | Original multipole sum: apparent total charge =  -0.319771E-15
  | Sum of charges compensated after spline to logarithmic grids =   0.819556E-06
  | Analytical far-field extrapolation by fixed multipoles:
  | Hartree multipole sum: apparent total charge =  -0.885519E-15
  Summing up the Hartree potential.
  Time summed over all CPUs for potential: real work        2.907 s, elapsed        3.043 s
  | RMS charge density error from multipole expansion :   0.247745E-02
  | Average real-space part of the electrostatic potential :      0.14551999 eV

  Integrating Hamiltonian matrix: batch-based integration.
  Time summed over all CPUs for integration: real work        1.068 s, elapsed        1.142 s

  Updating Kohn-Sham eigenvalues and eigenvectors using ELSI and the ELPA eigensolver.
  Starting ELPA eigensolver
  Finished transformation to standard eigenproblem
  | Time :     0.001 s
  Finished solving standard eigenproblem
  | Time :     0.004 s
  Finished back-transformation of eigenvectors
  | Time :     0.000 s

  Obtaining occupation numbers and electronic chemical potential using ELSI.
  | Note that, for insulating systems, the printed 'chemical potential' value is not uniquely defined.
  | It can be anywhere in the energy gap, as long as it correctly separates occupied and unoccupied states.
  | In systems with a gap, the physically relevant chemical potential is the VBM or HOMO.

  | Chemical potential (Fermi level):    -4.98747816 eV
  Highest occupied state (VBM) at     -7.69158539 eV (relative to internal zero)
  | Occupation number:      2.00000000
  | K-point:       1 at    0.000000    0.000000    0.000000 (in units of recip. lattice)

  Lowest unoccupied state (CBM) at    -2.67920008 eV (relative to internal zero)
  | Occupation number:      0.00000000
  | K-point:       1 at    0.000000    0.000000    0.000000 (in units of recip. lattice)

  ESTIMATED overall HOMO-LUMO gap:      5.01238531 eV between HOMO at k-point 1 and LUMO at k-point 1
  The gap value is above 0.2 eV. Unless you are using a very sparse k-point grid,
  this system is most likely an insulator or a semiconductor.

  Total energy components:
  | Sum of eigenvalues            :         -41.71018926 Ha       -1134.99199745 eV
  | XC energy correction          :          -9.19636817 Ha        -250.24591041 eV
  | XC potential correction       :          11.82792579 Ha         321.85423663 eV
  | Free-atom electrostatic energy:         -35.77586369 Ha        -973.51078276 eV
  | Hartree energy correction     :          -1.52248342 Ha         -41.42888167 eV
  | Entropy correction            :           0.00000000 Ha           0.00000000 eV
  | ---------------------------
  | Total energy                  :         -76.37697875 Ha       -2078.32333566 eV
  | Total energy, T -> 0          :         -76.37697875 Ha       -2078.32333566 eV  <-- do not rely on this value for anything but (periodic) metals
  | Electronic free energy        :         -76.37697875 Ha       -2078.32333566 eV

  Derived energy quantities:
  | Kinetic energy                :          76.05284143 Ha        2069.50311049 eV
  | Electrostatic energy          :        -143.23345200 Ha       -3897.58053574 eV
  | Energy correction for multipole
  | error in Hartree potential    :          -0.00106125 Ha          -0.02887807 eV
  | Sum of eigenvalues per atom                           :        -378.33066582 eV
  | Total energy (T->0) per atom                          :        -692.77444522 eV  <-- do not rely on this value for anything but (periodic) metals
  | Electronic free energy per atom                       :        -692.77444522 eV
  Evaluating new KS density using the density matrix
  Evaluating density matrix
  Finished density matrix calculation
  | Time :     0.000 s
  Time summed over all CPUs for getting density from density matrix: real work        2.077 s, elapsed        2.312 s
  Integration grid: deviation in total charge (<rho> - N_e) =   5.329071E-15

  Self-consistency convergence accuracy:
  | Change of charge density      :  0.1069E+00
  | Change of unmixed KS density  :  0.5910E-01
  | Change of sum of eigenvalues  :  0.1186E+02 eV
  | Change of total energy        :  0.2491E+00 eV


------------------------------------------------------------
  End self-consistency iteration #     4       :  max(cpu_time)    wall_clock(cpu1)
  | Time for this iteration                     :        0.524 s           0.521 s
  | Charge density update                       :        0.148 s           0.148 s
  | Density mixing & preconditioning            :        0.084 s           0.084 s
  | Hartree multipole update                    :        0.004 s           0.003 s
[...]
 FOU  0.000000000000000E+000  0.000000000000000E+000  0.000000000000000E+000
  0.000000000000000E+000  0.000000000000000E+000  0.000000000000000E+000
  0.000000000000000E+000  0.000000000000000E+000  0.000000000000000E+000
 FOU  5.422884871967578E-005 -9.062941589586359E-005  7.184120786949395E-005
  1.386596725174050E-004 -9.039344605196571E-003 -2.544883896694989E-003
  6.862109493795855E-006 -1.042446903166286E-004 -7.717388226725838E-004
  0.000000000000000E+000  0.000000000000000E+000  0.000000000000000E+000
 FOU  0.000000000000000E+000  0.000000000000000E+000  0.000000000000000E+000
  0.000000000000000E+000  0.000000000000000E+000  0.000000000000000E+000
  0.000000000000000E+000  0.000000000000000E+000  0.000000000000000E+000
 FOU  0.000000000000000E+000  0.000000000000000E+000  0.000000000000000E+000
  4.049339548806984E-005 -1.663323374786720E-003 -2.405817004825561E-003
  0.000000000000000E+000  0.000000000000000E+000  0.000000000000000E+000
  0.000000000000000E+000  0.000000000000000E+000  0.000000000000000E+000
  0.000000000000000E+000  0.000000000000000E+000  0.000000000000000E+000
 -5.029101383875398E-006 -2.745828978742331E-004 -4.155627268769883E-003
  0.000000000000000E+000  0.000000000000000E+000  0.000000000000000E+000
  0.000000000000000E+000  0.000000000000000E+000  0.000000000000000E+000
  End CPSCF iteration #     5                  :  max(cpu_time)    wall_clock(cpu1)
  | Time for this iteration                     :        1.396 s           1.394 s
  | first_order_DM                              :        0.004 s           0.003 s
  | first_order_density                         :        0.156 s           0.154 s
  | first_order_potential                       :        0.252 s           0.249 s
  | first_order_H                               :        0.984 s           0.981 s
  | Solution of Sternheimer eqns.               :        0.004 s           0.003 s
------------------------------------------------------------

--------------------- CPSCF ---------------------------------------
          Begin CP-self-consistency iteration #    6

  Date     :  20221003, Time     :  100406.674
------------------------------------------------------------

  CPSCF convergence accuracy:
  | Change of first_order_density_matrix     :  0.9346E-03
  Integrating first_order_rho: batch-based integration.
  Time summed over all CPUs for integration: real work        2.033 s, elapsed        2.327 s

  Evaluating partitioned Hartree potential by multipole expansion.
  | Original multipole sum: apparent total charge =   0.516553E-15
  | Sum of charges compensated after spline to logarithmic grids =   0.508652E-06
  | Analytical far-field extrapolation by fixed multipoles:
  | Hartree multipole sum: apparent total charge =   0.664139E-15
  Summing up the Hartree potential.
  Time summed over all CPUs for potential: real work        3.523 s, elapsed        3.920 s
  | RMS delta_rho error from multipole expansion :   0.209968E-01

  Integrating first-order-Hamiltonian matrix: batch-based integration.
  Time summed over all CPUs for integration: real work       13.715 s, elapsed       15.262 s
 FOH  0.000000000000000E+000  0.000000000000000E+000  0.000000000000000E+000
  0.000000000000000E+000  0.000000000000000E+000  0.000000000000000E+000
  0.000000000000000E+000  0.000000000000000E+000  0.000000000000000E+000
 FOH -3.184918254959846E-003 -1.162915777216684E-004  4.492005510595183E-006
  6.992573224484034E-003  4.663530974269776E-004 -3.357926618991306E-004
  2.402770638574176E-002  9.121078493143954E-004  1.283353317225486E-005
 FOH  0.000000000000000E+000  0.000000000000000E+000  0.000000000000000E+000
 FOH  0.000000000000000E+000  0.000000000000000E+000  0.000000000000000E+000
  0.000000000000000E+000  0.000000000000000E+000  0.000000000000000E+000
  0.000000000000000E+000  0.000000000000000E+000  0.000000000000000E+000
 FOH  2.907204310414018E-002 -6.799444731236719E-005 -8.564616939832574E-005
  0.000000000000000E+000  8.778759044003012E-003  4.288717661114083E-003
  0.000000000000000E+000  0.000000000000000E+000  2.380644820402886E-002
 FOH  1.741797990595359E-002 -1.157846176933314E-002  1.728610683668639E-003
  0.000000000000000E+000  1.639446617665146E-002  1.203362683173666E-005
  0.000000000000000E+000  0.000000000000000E+000  8.348220994861889E-003
 FOH -5.139885738844864E-006  4.325027641743941E-005  1.818547626262666E-005
 -2.342761423246873E-006  4.730587372802088E-004  6.422624471890732E-005
  5.187732477493656E-005 -4.644316938322654E-004 -2.539669397226385E-004
 FOH  0.000000000000000E+000  0.000000000000000E+000  0.000000000000000E+000
 FOH -1.538756437010367E-003  3.147290049494027E-003 -1.131293362941711E-003
 -5.546098197212315E-004 -1.931296365802610E-003  6.602121393499839E-002
  4.939302693725498E-003 -5.282495806009663E-003 -5.555866740710988E-002
 FOH  0.000000000000000E+000  0.000000000000000E+000  0.000000000000000E+000
  0.000000000000000E+000  0.000000000000000E+000  0.000000000000000E+000
  0.000000000000000E+000  0.000000000000000E+000  0.000000000000000E+000
  0.000000000000000E+000  0.000000000000000E+000  0.000000000000000E+000
 FOH  4.825372519704083E-002 -1.670675562247228E-002 -3.559910671656405E-004
  1.165212665962630E-003 -6.309909685881401E-004  2.119084327380113E-002
  4.979807269891945E-004  1.478524257527907E-004  1.060663474503197E-003
 FOH -4.589706380751194E-003 -2.830672996654889E-005  7.790716963548974E-003
 -2.314229980241873E-005  1.409937786366105E-003 -1.146366793147114E-004
 -4.154254759586421E-005  4.186667971687737E-003 -2.676216310769683E-005
 FOH -1.304473776038083E-003 -8.262529954263910E-004  3.117470490200133E-002
 FOH  1.489676271445985E-002  2.764057065530020E-003  1.906279022082335E-004
  0.000000000000000E+000  1.510573751898658E-002  1.270307568209191E-003
  0.000000000000000E+000  0.000000000000000E+000  1.570398524923358E-002
 FOH -7.638195919094650E-003 -4.278090090506105E-004 -6.854588523108885E-003
  0.000000000000000E+000 -8.199628916082275E-003  1.439303254230210E-002
  0.000000000000000E+000  0.000000000000000E+000 -8.083269358314243E-003
 FOH  0.000000000000000E+000  0.000000000000000E+000  0.000000000000000E+000
  0.000000000000000E+000  0.000000000000000E+000  0.000000000000000E+000
  0.000000000000000E+000  0.000000000000000E+000  0.000000000000000E+000
  1.355978071119632E-002 -1.119677508026251E-002  2.103449085407573E-003
  1.356299191026246E-003  5.308124586370582E-005 -2.521813567660030E-002
  0.000000000000000E+000  0.000000000000000E+000  0.000000000000000E+000
  0.000000000000000E+000  0.000000000000000E+000  0.000000000000000E+000
  0.000000000000000E+000  0.000000000000000E+000  0.000000000000000E+000
 FOU -3.146398754817429E-005  2.246386120132888E-004 -8.053244433351258E-006
  3.589654894917188E-004 -6.181053719874367E-004  3.794887815203439E-005
 FOU  0.000000000000000E+000  0.000000000000000E+000  0.000000000000000E+000
  0.000000000000000E+000  0.000000000000000E+000  0.000000000000000E+000
  0.000000000000000E+000  0.000000000000000E+000  0.000000000000000E+000
 FOU -5.796169538546692E-005 -1.859120296408127E-002 -1.815838924638290E-002
  4.034261042567207E-005 -1.663640621135435E-003 -2.412568124051097E-003
 -4.976503146630768E-006 -2.746145533641994E-004 -4.158064556207060E-003
 FOU  0.000000000000000E+000  0.000000000000000E+000  0.000000000000000E+000
  0.000000000000000E+000  0.000000000000000E+000  0.000000000000000E+000
  0.000000000000000E+000  0.000000000000000E+000  0.000000000000000E+000
 FOU  5.796200744594423E-005 -4.034401305862047E-005  4.976990572602154E-006
  1.859115333761968E-002  1.663640885074148E-003  2.746195995704796E-004
  1.815843139032864E-002  2.412704915401474E-003  4.158141863486869E-003
 FOU  5.426313911138307E-005 -9.176337590807238E-005  7.006626447066457E-005
 FOU  0.000000000000000E+000  0.000000000000000E+000  0.000000000000000E+000
 FOU  0.000000000000000E+000  0.000000000000000E+000  0.000000000000000E+000
 FOU  3.146437688610217E-005 -3.589690147129719E-004 -1.196633281036043E-004
 -2.246394475618149E-004  6.181109960754357E-004  1.488873129383275E-004
  8.053871714194007E-006 -3.793874310300079E-005  2.471804701728637E-004
  1.196660224713571E-004 -1.489122747406777E-004 -2.471857100339255E-004
 FOU -5.426320029664797E-005 -1.386192376221509E-004 -6.741253505761175E-006
  9.173851934768384E-005  9.042662451954838E-003  1.051243469636760E-004
 -7.008655709292631E-005  2.544671611110909E-003  7.722960524882719E-004
 FOU  0.000000000000000E+000  0.000000000000000E+000  0.000000000000000E+000
 FOU  0.000000000000000E+000  0.000000000000000E+000  0.000000000000000E+000
 FOU  0.000000000000000E+000  0.000000000000000E+000  0.000000000000000E+000
  0.000000000000000E+000  0.000000000000000E+000  0.000000000000000E+000
  0.000000000000000E+000  0.000000000000000E+000  0.000000000000000E+000
 FOU  0.000000000000000E+000  0.000000000000000E+000  0.000000000000000E+000
  0.000000000000000E+000  0.000000000000000E+000  0.000000000000000E+000
  0.000000000000000E+000  0.000000000000000E+000  0.000000000000000E+000
 FOU  0.000000000000000E+000  0.000000000000000E+000  0.000000000000000E+000
  0.000000000000000E+000  0.000000000000000E+000  0.000000000000000E+000
  0.000000000000000E+000  0.000000000000000E+000  0.000000000000000E+000
  1.386199864158597E-004 -9.042669839354952E-003 -2.544670862268162E-003
  0.000000000000000E+000  0.000000000000000E+000  0.000000000000000E+000
  0.000000000000000E+000  0.000000000000000E+000  0.000000000000000E+000
 FOU  0.000000000000000E+000  0.000000000000000E+000  0.000000000000000E+000
  0.000000000000000E+000  0.000000000000000E+000  0.000000000000000E+000
  0.000000000000000E+000  0.000000000000000E+000  0.000000000000000E+000
  6.740554394343587E-006 -1.051315018447500E-004 -7.722861041308444E-004
  0.000000000000000E+000  0.000000000000000E+000  0.000000000000000E+000
  0.000000000000000E+000  0.000000000000000E+000  0.000000000000000E+000
  0.000000000000000E+000  0.000000000000000E+000  0.000000000000000E+000
  0.000000000000000E+000  0.000000000000000E+000  0.000000000000000E+000
  0.000000000000000E+000  0.000000000000000E+000  0.000000000000000E+000
  0.000000000000000E+000  0.000000000000000E+000  0.000000000000000E+000

  CP-self-consistency cycle converged.

  End CPSCF iteration #     6                  :  max(cpu_time)    wall_clock(cpu1)
  | Time for this iteration                     :        1.404 s           1.400 s
  | first_order_DM                              :        0.004 s           0.003 s
  | first_order_density                         :        0.172 s           0.170 s
  | first_order_potential                       :        0.264 s           0.262 s
  | first_order_H                               :        0.956 s           0.956 s
  | Solution of Sternheimer eqns.               :        0.004 s           0.003 s
------------------------------------------------------------
dP_dE (Bohr^3) at every cycle:--->
 (12.9123017283798,0.000000000000000E+000) (1.03827094131021,0.000000000000000E+000) (-0.235424160659907,0.000000000000000E+000)
 (1.03824792353847,0.000000000000000E+000) (11.7365143410682,0.000000000000000E+000) (5.297570782807801E-002,0.000000000000000E+000)
 (-0.235400342029430,0.000000000000000E+000) (5.287254169213875E-002,0.000000000000000E+000) (16.0143783287212,0.000000000000000E+000)
DFPT polarizability (Bohr^3)        xx        yy        zz        xy        xz        yz
  | Polarizability:--->                        12.912301728                   11.736514341                   16.014378329                    1.038270941                   -0.235424161                    0.052975708

DFPT for dielectric_constant:--->  # PARSE DFPT_dielectric_tensor
               1.192356520919259             0.015467279981774            -0.003507149494915
               0.015466937082531             1.174840637545274             0.000789187169368
              -0.003506794665157             0.000787650287764             1.238568627406458

                                               :  max(cpu_time)    wall_clock(cpu1)
  | Time for  dielectric calculation            :        0.000 s           0.001 s
===========================================================================

------------------------------------------------------------------------------
  Final output of selected total energy values:

  The following output summarizes some interesting total energy values
  at the end of a run (AFTER all relaxation, molecular dynamics, etc.).

  | Total energy of the DFT / Hartree-Fock s.c.f. calculation      :          -2078.303873981 eV
  | Final zero-broadening corrected energy (caution - metals only) :          -2078.303873981 eV
  | For reference only, the value of 1 Hartree used in FHI-aims is :             27.211384500 eV
  | For reference only, the overall average (free atom contribution
  | + realspace contribution) of the electrostatic potential after
  | s.c.f. convergence is                                          :             -1.118974779 eV

  Before relying on these values, please be sure to understand exactly which
  total energy value is referred to by a given number. Different objects may
  all carry the same name 'total energy'. Definitions:

  Total energy of the DFT / Hartree-Fock s.c.f. calculation:
  | Note that this energy does not include ANY quantities calculated after the
  | s.c.f. cycle, in particular not ANY RPA, MP2, etc. many-body perturbation terms.

  Final zero-broadening corrected energy:
  | For metallic systems only, a broadening of the occupation numbers at the Fermi
  | level can be extrapolated back to zero broadening by an electron-gas inspired
  | formula. For all systems that are not real metals, this value can be
  | meaningless and should be avoided.

------------------------------------------------------------------------------
  Methods described in the following list of references were used in this FHI-aims run.
  If you publish the results, please make sure to cite these reference if they apply.
  FHI-aims is an academic code, and for our developers (often, Ph.D. students
  and postdocs), scientific credit in the community is essential.
  Thank you for helping us!

  For any use of FHI-aims, please cite:

    Volker Blum, Ralf Gehrke, Felix Hanke, Paula Havu, Ville Havu,
    Xinguo Ren, Karsten Reuter, and Matthias Scheffler
    'Ab initio molecular simulations with numeric atom-centered orbitals'
    Computer Physics Communications 180, 2175-2196 (2009)
    http://doi.org/10.1016/j.cpc.2009.06.022


  The provided symmetry information was generated with SPGlib:

    Atsushi Togo, Yusuke Seto, Dimitar Pashov
    SPGlib 1.7.3 obtained from http://spglib.sourceforge.net
    Copyright (C) 2008 Atsushi Togo


  The DFPT (perturbation by an electric field) part of the code was used.
  Here is the corresponding reference:

    Honghui Shang, Nathaniel Raimbault, Mariana Rossi,
    Christian Carbogno, Patrick Rinke and Matthias Scheffler,
    'All-Electron, Real-Space Perturbation Theory for Homogeneous
    Electric Fields: Theory, Implementation, and Application within dft'
    New Journal of Physics, 20(7):073040, 2018


  The ELSI infrastructure was used in your run to solve the Kohn-Sham electronic structure.
  Please check out http://elsi-interchange.org to learn more.
  If scalability is important for your project, please acknowledge ELSI by citing:

    V. W-z. Yu, F. Corsetti, A. Garcia, W. P. Huhn, M. Jacquelin, W. Jia,
    B. Lange, L. Lin, J. Lu, W. Mi, A. Seifitokaldani, A. Vazquez-Mayagoitia,
    C. Yang, H. Yang, and V. Blum
    'ELSI: A unified software interface for Kohn-Sham electronic structure solvers'
    Computer Physics Communications 222, 267-285 (2018).
    http://doi.org/10.1016/j.cpc.2017.09.007


  For the real-space grid partitioning and parallelization used in this calculation, please cite:

    Ville Havu, Volker Blum, Paula Havu, and Matthias Scheffler,
    'Efficient O(N) integration for all-electron electronic structure calculation'
    'using numerically tabulated basis functions'
    Journal of Computational Physics 228, 8367-8379 (2009).
    http://doi.org/10.1016/j.jcp.2009.08.008

  Of course, there are many other important community references, e.g., those cited in the
  above references. Our list is limited to references that describe implementations in the
  FHI-aims code. The reason is purely practical (length of this list) - please credit others as well.

------------------------------------------------------------
          Leaving FHI-aims.
          Date     :  20221003, Time     :  100408.083

          Computational steps:
          | Number of self-consistency cycles          :           34
          | Number of SCF (re)initializations          :            1
          | Number of coupled perturbed self-consistency cycles          :            0
          | Number of CPSCF (re)initializations          :            0

          Detailed time accounting                     :  max(cpu_time)    wall_clock(cpu1)
          | Total time                                  :       36.596 s          36.707 s
          | Preparation time                            :        0.144 s           0.144 s
          | Boundary condition initalization            :        0.048 s           0.047 s
          | Grid partitioning                           :        0.032 s           0.031 s
          | Preloading free-atom quantities on grid     :        0.084 s           0.082 s
          | Free-atom superposition energy              :        0.012 s           0.011 s
          | Total time for integrations                 :        1.204 s           1.177 s
          | Total time for solution of K.-S. equations  :        0.128 s           0.112 s
          | Total time for density update               :        2.180 s           2.159 s
          | Total time for mixing & preconditioning     :        1.264 s           1.233 s
          | Total time for Hartree multipole update     :        0.056 s           0.051 s
          | Total time for Hartree multipole sum        :        2.972 s           2.951 s
          | Total time for total energy evaluation      :        0.060 s           0.018 s
          | Total time first_order_DM                   :        0.104 s           0.076 s
          | Total time first_order_density              :        3.056 s           3.026 s
          | Total time first_order_potential            :        4.948 s           4.917 s
          | Total time first_order_H                    :       19.436 s          19.408 s
          | Total time solving of Sternheimer equations :        0.080 s           0.061 s
          | Total time for dielectric constant          :        0.000 s           0.001 s
          | Total time momentum matrix                  :        0.000 s           0.000 s

          Partial memory accounting:
          | Residual value for overall tracked memory usage across tasks:     0.000000 MB (should be 0.000000 MB)
          | Peak values for overall tracked memory usage:
          |   Minimum:        9.307 MB (on task  5 after allocating DFPT_pulay_mixing::pulay_mix::alphas)
          |   Maximum:        9.311 MB (on task  0 after allocating DFPT_pulay_mixing::pulay_mix::alphas)
          |   Average:        9.308 MB
          | Largest tracked array allocation:
          |   Minimum:        3.338 MB (DFPT_pulay_mixing::initialize_pulay_mixing::X_in_diffs on task  0)
          |   Maximum:        3.338 MB (DFPT_pulay_mixing::initialize_pulay_mixing::X_in_diffs on task  0)
          |   Average:        3.338 MB
          Note:  These values currently only include a subset of arrays which are explicitly tracked.
          The "true" memory usage will be greater.

          Have a nice day.
------------------------------------------------------------
