------------------------------------------------------------
          Invoking FHI-aims ...

          When using FHI-aims, please cite the following reference:

            Volker Blum, Ralf Gehrke, Felix Hanke, Paula Havu,
            Ville Havu, Xinguo Ren, Karsten Reuter, and Matthias Scheffler,
            'Ab Initio Molecular Simulations with Numeric Atom-Centered Orbitals',
            Computer Physics Communications 180, 2175-2196 (2009)

          In addition, many other developments in FHI-aims are likely important for
          your particular application. A partial list of references is given at the end of
          this file. Thank you for giving credit to the authors of these developments.

          For any questions about FHI-aims, please visit our slack channel at

            https://fhi-aims.slack.com

          and our main development and support site at

            https://aims-git.rz-berlin.mpg.de .

          The latter site, in particular, has a wiki to collect information, as well
          as an issue tracker to log discussions, suggest improvements, and report issues
          or bugs. https://aims-git.rz-berlin.mpg.de is also the main development site
          of the project and all new and updated code versions can be obtained there.
          Please send an email to aims-coordinators@fhi-berlin.mpg.de and we will add
          you to these sites. They are for you and everyone is welcome there.

------------------------------------------------------------



  Date     :  20221003, Time     :  094415.317
  Time zero on CPU 1             :   0.400000000000000E-01  s.
  Internal wall clock time zero  :           434022255.317  s.

  FHI-aims created a unique identifier for this run for later identification
  aims_uuid : 969AF0BD-2BF9-4F83-AA15-57E294232734

  Build configuration of the current instance of FHI-aims
  -------------------------------------------------------
  FHI-aims version      : 220810
  Commit number         : eae8be818
  CMake host system     : Linux-4.9.0-16-amd64
  CMake version         : 3.17.3
  Fortran compiler      : /opt/easybuild/software/impi/2017.3.196-iccifort-2017.4.196-GCC-6.4.0-2.28/bin64/mpiifort (Intel) version 17.0.4.20170411
  Fortran compiler flags: -O3 -ip -fp-model precise
  C compiler            : /opt/easybuild/software/icc/2017.4.196-GCC-6.4.0-2.28/compilers_and_libraries_2017.4.196/linux/bin/intel64/icc (Intel) version 17.0.4.20170411
  C compiler flags      : -O3 -ip -fp-model precise -std=gnu99
  Using MPI
  Using ScaLAPACK
  Using LibXC
  Using i-PI
  Using RLSY
  Linking against: /opt/easybuild/software/imkl/2017.3.196-iimpi-2017b/mkl/lib/intel64/libmkl_intel_lp64.so
                   /opt/easybuild/software/imkl/2017.3.196-iimpi-2017b/mkl/lib/intel64/libmkl_sequential.so
                   /opt/easybuild/software/imkl/2017.3.196-iimpi-2017b/mkl/lib/intel64/libmkl_core.so
                   /opt/easybuild/software/imkl/2017.3.196-iimpi-2017b/mkl/lib/intel64/libmkl_blacs_intelmpi_lp64.so
                   /opt/easybuild/software/imkl/2017.3.196-iimpi-2017b/mkl/lib/intel64/libmkl_scalapack_lp64.so

  Using       16 parallel tasks.
  Task        0 on host mpsd-hpc-ibm-056 reporting.
  Task        1 on host mpsd-hpc-ibm-056 reporting.
  Task        2 on host mpsd-hpc-ibm-056 reporting.
  Task        3 on host mpsd-hpc-ibm-056 reporting.
  Task        4 on host mpsd-hpc-ibm-057 reporting.
  Task        5 on host mpsd-hpc-ibm-057 reporting.
  Task        6 on host mpsd-hpc-ibm-057 reporting.
  Task        7 on host mpsd-hpc-ibm-057 reporting.
  Task        8 on host mpsd-hpc-ibm-058 reporting.
  Task        9 on host mpsd-hpc-ibm-058 reporting.
  Task       10 on host mpsd-hpc-ibm-058 reporting.
  Task       11 on host mpsd-hpc-ibm-058 reporting.
  Task       12 on host mpsd-hpc-ibm-059 reporting.
  Task       13 on host mpsd-hpc-ibm-059 reporting.
  Task       14 on host mpsd-hpc-ibm-059 reporting.
  Task       15 on host mpsd-hpc-ibm-059 reporting.

  Performing system and environment tests:
  | Environment variable OMP_NUM_THREADS correctly set to 1.
  | Checking for ScaLAPACK...
  | Testing pdtran()...
  | All pdtran() tests passed.

  Obtaining array dimensions for all initial allocations:
  
  -----------------------------------------------------------------------
  Parsing control.in (first pass over file, find array dimensions only).
  The contents of control.in will be repeated verbatim below
  unless switched off by setting 'verbatim_writeout .false.' .
  in the first line of control.in .
  -----------------------------------------------------------------------
  
  #########################################################################################
  #
  #  Volker Blum, 2017 : Test run input file control.in for simple H2O
  #
  #########################################################################################
  #
  #  Physical model
  #
    xc                 pbe
    spin               none
    relativistic       none
    charge             0.
  
  #  ri_density_restart         write
  #  ri_rho1 write
  #  ri_full_output .True.
  #  ri_output_density_only .True.
    DFPT dielectric
    sc_accuracy_rho    1d-6
  #  use_calculate_fock_matrix_old .false.
  #  output cube total_density
    k_grid 1 1 1
    wave_threshold 1e-8
  
  # prodbas_threshold 1e-2
  #
  #  Relaxation
  #
  #  relax_geometry   bfgs 1.e-2
  #
  
  ################################################################################
  
  ################################################################################
  #
  #  FHI-aims code project
  #  VB, Fritz-Haber Institut, 2009
  #
  #  Suggested "light" defaults for O atom (to be pasted into control.in file)
  #  Be sure to double-check any results obtained with these settings for post-processing,
  #  e.g., with the "tight" defaults and larger basis sets.
  #
  ################################################################################
    species        O
  #     global species definitions
      nucleus             8
      mass                15.9994
  #
      l_hartree           6
  #
      cut_pot             4.0  2.0  1.0
      basis_dep_cutoff    1e-4
  #
      radial_base         36 7.0
      radial_multiplier   2
       angular_grids specified
        division   0.2659   50
        division   0.4451  110
        division   0.6052  194
        division   0.7543  302
        division   0.8014  434
  #      division   0.8507  590
  #      division   0.8762  770
  #      division   0.9023  974
  #      division   1.2339 1202
  #      outer_grid 974
        outer_grid 434
  ################################################################################
  #
  #  Definition of "minimal" basis
  #
  ################################################################################
  #     valence basis states
      valence      2  s   2.
      valence      2  p   4.
  #     ion occupancy
      ion_occ      2  s   1.
      ion_occ      2  p   3.
  ################################################################################
  #
  #  Suggested additional basis functions. For production calculations,
  #  uncomment them one after another (the most important basis functions are
  #  listed first).
  #
  #
  ################################################################################
  #  "First tier" - improvements: -699.05 meV to -159.38 meV
       hydro 2 p 1.8
       hydro 3 d 7.6
       hydro 3 s 6.4
  #  "Second tier" - improvements: -49.91 meV to -5.39 meV
       hydro 4 f 11.6
       hydro 3 p 6.2
       hydro 3 d 5.6
       hydro 5 g 17.6
       hydro 1 s 0.75
  #  "Third tier" - improvements: -2.83 meV to -0.50 meV
  #     ionic 2 p auto
  #     hydro 4 f 10.8
  #     hydro 4 d 4.7
  #     hydro 2 s 6.8
  #  "Fourth tier" - improvements: -0.40 meV to -0.12 meV
  #     hydro 3 p 5
  #     hydro 3 s 3.3
  #     hydro 5 g 15.6
  #     hydro 4 f 17.6
  #     hydro 4 d 14
  # Further basis functions - -0.08 meV and below
  #     hydro 3 s 2.1
  #     hydro 4 d 11.6
  #     hydro 3 p 16
  #     hydro 2 s 17.2
  ################################################################################
  #
  #  FHI-aims code project
  #  VB, Fritz-Haber Institut, 2009
  #
  #  Suggested "light" defaults for H atom (to be pasted into control.in file)
  #  Be sure to double-check any results obtained with these settings for post-processing,
  #  e.g., with the "tight" defaults and larger basis sets.
  #
  ################################################################################
    species        H
  #     global species definitions
      nucleus             1
      mass                1.00794
  #
      l_hartree           6
  #
      cut_pot             4.0  2.0  1.0
      basis_dep_cutoff    1e-4
  #
      radial_base         24 7.0
      radial_multiplier   2
      angular_grids       specified
        division   0.2421   50
        division   0.3822  110
        division   0.4799  194
        division   0.5341  302
        division   0.5626  434
  #      division   0.5922  590
  #      division   0.6542  770
  #      division   0.6868 1202
  #      outer_grid  770
        outer_grid  434
  ################################################################################
  #
  #  Definition of "minimal" basis
  #
  ################################################################################
  #     valence basis states
      valence      1  s   1.
  #     ion occupancy
      ion_occ      1  s   0.5
  ################################################################################
  #
  #  Suggested additional basis functions. For production calculations,
  #  uncomment them one after another (the most important basis functions are
  #  listed first).
  #
  #  Basis constructed for dimers: 0.5 A, 0.7 A, 1.0 A, 1.5 A, 2.5 A
  #
  ################################################################################
  #  "First tier" - improvements: -1014.90 meV to -62.69 meV
       hydro 2 s 2.1
       hydro 2 p 3.5
  #  "Second tier" - improvements: -12.89 meV to -1.83 meV
      hydro 1 s 0.85
      hydro 2 p 3.7
      hydro 2 s 1.2
      hydro 3 d 7
  #  "Third tier" - improvements: -0.25 meV to -0.12 meV
  #    hydro 4 f 11.2
  #    hydro 3 p 4.8
  #    hydro 4 d 9
  #    hydro 3 s 3.2
  #
  
  
  -----------------------------------------------------------------------
  Completed first pass over input file control.in .
  -----------------------------------------------------------------------
  
  
  -----------------------------------------------------------------------
  Parsing geometry.in (first pass over file, find array dimensions only).
  The contents of geometry.in will be repeated verbatim below
  unless switched off by setting 'verbatim_writeout .false.' .
  in the first line of geometry.in .
  -----------------------------------------------------------------------
  
  #=======================================================
  # FHI-aims file: qmdata/data/geoms/213.in
  # Created using the Atomic Simulation Environment (ASE)
  # Wed Sep 21 12:30:23 2022
  #=======================================================
  lattice_vector 5.0000000000000000 0.0000000000000000 0.0000000000000000
  lattice_vector 0.0000000000000000 5.0000000000000000 0.0000000000000000
  lattice_vector 0.0000000000000000 0.0000000000000000 5.0000000000000000
  atom 0.0661710100000000 0.0125723700000000 0.0036916000000000 O
  atom -0.5939434700000000 -0.8742150200000000 -0.0331354200000000 H
  atom -0.4563243500000000 0.6746660200000000 -0.0254578100000000 H
  
  -----------------------------------------------------------------------
  Completed first pass over input file geometry.in .
  -----------------------------------------------------------------------
  

  Basic array size parameters:
  | Number of species                 :        2
  | Number of atoms                   :        3
  | Number of lattice vectors         :        3
  | Max. basis fn. angular momentum   :        4
  | Max. atomic/ionic basis occupied n:        2
  | Max. number of basis fn. types    :        2
  | Max. radial fns per species/type  :        8
  | Max. logarithmic grid size        :     1301
  | Max. radial integration grid size :       73
  | Max. angular integration grid size:      434
  | Max. angular grid division number :        8
  | Radial grid for Hartree potential :     1301
  | Number of spin channels           :        1

------------------------------------------------------------
          Reading file control.in.
------------------------------------------------------------
  XC: Using PBE gradient-corrected functionals.
  Spin treatment: No spin polarisation.
  Non-relativistic treatment of kinetic energy.
  Charge =   0.000000E+00: Neutral system requested explicitly.
  DFPT calculation will begin after the DFT/HF calculation.
  Convergence accuracy of self-consistent charge density:  0.1000E-05
  Found k-point grid:         1         1         1
  Threshold value for wave function integration:  0.1000E-07
 
  Reading configuration options for species O                   .
  | Found nuclear charge :   8.0000
  | Found atomic mass :    15.9994000000000      amu
  | Found l_max for Hartree potential  :   6
  | Found cutoff potl. onset [A], width [A], scale factor :    4.00000    2.00000    1.00000
  | Threshold for basis-dependent cutoff potential is   0.100000E-03
  | Found data for basic radial integration grid :    36 points, outermost radius =    7.000 A
  | Found multiplier for basic radial grid :   2
  | Found angular grid specification: user-specified.
  | Specified grid contains     6 separate shells.
  | Check grid settings after all constraints further below.
  | Found free-atom valence shell :  2 s   2.000
  | Found free-atom valence shell :  2 p   4.000
  | No ionic wave fns used. Skipping ion_occ.
  | No ionic wave fns used. Skipping ion_occ.
  | Found hydrogenic basis function :  2 p   1.800
  | Found hydrogenic basis function :  3 d   7.600
  | Found hydrogenic basis function :  3 s   6.400
  | Found hydrogenic basis function :  4 f  11.600
  | Found hydrogenic basis function :  3 p   6.200
  | Found hydrogenic basis function :  3 d   5.600
  | Found hydrogenic basis function :  5 g  17.600
  | Found hydrogenic basis function :  1 s   0.750
  Species O                   : Missing cutoff potential type.
  Defaulting to exp(1/x)/(1-x)^2 type cutoff potential.
  Species O : No 'logarithmic' tag. Using default grid for free atom:
  | Default logarithmic grid data [bohr] : 0.1000E-03 0.1000E+03 0.1012E+01
  Species O : On-site basis accuracy parameter (for Gram-Schmidt orthonormalisation) not specified.
  Using default value basis_acc =  0.1000000E-03.
  Species O                   : Using default innermost maximum threshold i_radial=  2 for radial functions.
  Species O                   : Default cutoff onset for free atom density etc. : 0.40000000E+01 AA.
  Species O                   : Basic radial grid will be enhanced according to radial_multiplier =   2, to contain    73 grid points.
 
  Reading configuration options for species H                   .
  | Found nuclear charge :   1.0000
  | Found atomic mass :    1.00794000000000      amu
  | Found l_max for Hartree potential  :   6
  | Found cutoff potl. onset [A], width [A], scale factor :    4.00000    2.00000    1.00000
  | Threshold for basis-dependent cutoff potential is   0.100000E-03
  | Found data for basic radial integration grid :    24 points, outermost radius =    7.000 A
  | Found multiplier for basic radial grid :   2
  | Found angular grid specification: user-specified.
  | Specified grid contains     6 separate shells.
  | Check grid settings after all constraints further below.
  | Found free-atom valence shell :  1 s   1.000
  | No ionic wave fns used. Skipping ion_occ.
  | Found hydrogenic basis function :  2 s   2.100
  | Found hydrogenic basis function :  2 p   3.500
  | Found hydrogenic basis function :  1 s   0.850
  | Found hydrogenic basis function :  2 p   3.700
  | Found hydrogenic basis function :  2 s   1.200
  | Found hydrogenic basis function :  3 d   7.000
  Species H                   : Missing cutoff potential type.
  Defaulting to exp(1/x)/(1-x)^2 type cutoff potential.
  Species H : No 'logarithmic' tag. Using default grid for free atom:
  | Default logarithmic grid data [bohr] : 0.1000E-03 0.1000E+03 0.1012E+01
  Species H : On-site basis accuracy parameter (for Gram-Schmidt orthonormalisation) not specified.
  Using default value basis_acc =  0.1000000E-03.
  Species H                   : Using default innermost maximum threshold i_radial=  2 for radial functions.
  Species H                   : Default cutoff onset for free atom density etc. : 0.40000000E+01 AA.
  Species H                   : Basic radial grid will be enhanced according to radial_multiplier =   2, to contain    49 grid points.
 
  Finished reading input file 'control.in'.
 
------------------------------------------------------------


------------------------------------------------------------
          Reading geometry description geometry.in.
------------------------------------------------------------
  | The smallest distance between any two atoms is         0.84393074 AA.
  | The first atom of this pair is atom number                      1 .
  | The second atom of this pair is atom number                     3 .
  | Wigner-Seitz cell of the first atom image           0     0     0 .
  | (The Wigner-Seitz cell of the second atom is 0 0 0  by definition.)

  Symmetry information by spglib:
  | Precision set to  0.1E-04
  | Number of Operations  : 1
  | Space group           : 1
  | International         : P1  n
  | Schoenflies           : C1^1
  Input structure read successfully.
  The structure contains        3 atoms,  and a total of         10.000 electrons.

  Input geometry:
  | Unit cell:
  |        5.00000000        0.00000000        0.00000000
  |        0.00000000        5.00000000        0.00000000
  |        0.00000000        0.00000000        5.00000000
  | Atomic structure:
  |       Atom                x [A]            y [A]            z [A]
  |    1: Species O             0.06617101        0.01257237        0.00369160
  |    2: Species H            -0.59394347       -0.87421502       -0.03313542
  |    3: Species H            -0.45632435        0.67466602       -0.02545781

  Lattice parameters for 3D lattice (in Angstroms) :     5.000000    5.000000    5.000000
  Angle(s) between unit vectors (in degrees)       :    90.000000   90.000000   90.000000


  Quantities derived from the lattice vectors (in Angstrom^-1):
  | Reciprocal lattice vector 1:  1.256637  0.000000  0.000000
  | Reciprocal lattice vector 2:  0.000000  1.256637  0.000000
  | Reciprocal lattice vector 3:  0.000000  0.000000  1.256637
  | Unit cell volume                               :   0.125000E+03  Angstrom^3

  Fractional coordinates:
                         L1                L2                L3
       atom_frac         0.01323420        0.00251447        0.00073832  O
       atom_frac        -0.11878869       -0.17484300       -0.00662708  H
       atom_frac        -0.09126487        0.13493320       -0.00509156  H

 
  Finished reading input file 'geometry.in'.
 

 
  Consistency checks for stacksize environment parameter are next.
 
  | Maximum stacksize for task 0: unlimited
  | Maximum stacksize for task 1: unlimited
  | Maximum stacksize for task 2: unlimited
  | Maximum stacksize for task 3: unlimited
  | Maximum stacksize for task 4: unlimited
  | Maximum stacksize for task 5: unlimited
  | Maximum stacksize for task 6: unlimited
  | Maximum stacksize for task 7: unlimited
  | Maximum stacksize for task 8: unlimited
  | Maximum stacksize for task 9: unlimited
  | Maximum stacksize for task 10: unlimited
  | Maximum stacksize for task 11: unlimited
  | Maximum stacksize for task 12: unlimited
  | Maximum stacksize for task 13: unlimited
  | Maximum stacksize for task 14: unlimited
  | Maximum stacksize for task 15: unlimited
  | Current stacksize for task 0: unlimited
  | Current stacksize for task 1: unlimited
  | Current stacksize for task 2: unlimited
  | Current stacksize for task 3: unlimited
  | Current stacksize for task 4: unlimited
  | Current stacksize for task 5: unlimited
  | Current stacksize for task 6: unlimited
  | Current stacksize for task 7: unlimited
  | Current stacksize for task 8: unlimited
  | Current stacksize for task 9: unlimited
  | Current stacksize for task 10: unlimited
  | Current stacksize for task 11: unlimited
  | Current stacksize for task 12: unlimited
  | Current stacksize for task 13: unlimited
  | Current stacksize for task 14: unlimited
  | Current stacksize for task 15: unlimited
 
  Consistency checks for the contents of control.in are next.
 
  MPI_IN_PLACE appears to work with this MPI implementation.
  | Keeping use_mpi_in_place .true. (see manual).
  Target number of points in a grid batch is not set. Defaulting to  100
  Method for grid partitioning is not set. Defaulting to parallel hash+maxmin partitioning.
  Batch size limit is not set. Defaulting to    200
  By default, will store active basis functions for each batch.
  If in need of memory, prune_basis_once .false. can be used to disable this option.
  communication_type for Hartree potential was not specified.
  Defaulting to calc_hartree .
  Defaulting to Pulay charge density mixer.
  Pulay mixer: Number of relevant iterations not set.
  Defaulting to    8 iterations.
  Pulay mixer: Number of initial linear mixing iterations not set.
  Defaulting to    0 iterations.
  Work space size for distributed Hartree potential not set.
  Defaulting to   0.200000E+03 MB.
  Mixing parameter for charge density mixing has not been set.
  Using default: charge_mix_param =     0.0500.
  The mixing parameter will be adjusted in iteration number     2 of the first full s.c.f. cycle only.
  Algorithm-dependent basis array size parameters:
  | n_max_pulay                         :        8
  Maximum number of self-consistency iterations not provided.
  Presetting  1000 iterations.
  Presetting      1001 iterations before the initial mixing cycle
  is restarted anyway using the sc_init_iter criterion / keyword.
  Presetting a factor      1.000 between actual scf density residual
  and density convergence criterion sc_accuracy_rho below which sc_init_iter
  takes no effect.
  Calculation of forces was not defined in control.in. No forces will be calculated.
  Geometry relaxation not requested: no relaxation will be performed.
  No accuracy limit for integral partition fn. given. Defaulting to  0.1000E-14.
  No occupation type (smearing scheme) given. Defaulting to Gaussian broadening, width =  0.1000E-01 eV.
  The width will be adjusted in iteration number     2 of the first full s.c.f. cycle only.
  S.C.F. convergence parameters will be adjusted in iteration number     2 of the first full s.c.f. cycle only.
  No accuracy for occupation numbers given. Defaulting to  0.1000E-12.
  No threshold value for occupation numbers given. Defaulting to  0.0000E+00.
  No accuracy for fermi level given. Defaulting to  0.1000E-19.
  Maximum # of iterations to find E_F not set. Defaulting to  200.
  Preferred method for the eigenvalue solver ('KS_method') not specified in 'control.in'.
  Calling BLACS routine to test compilation state
  Since ScaLAPACK support is enabled, defaulting to ELPA (via ELSI).
  Will not use alltoall communication since running on < 1024 CPUs.
  Threshold for basis singularities not set.
  Default threshold for basis singularities:  0.1000E-04
  partition_type (choice of integration weights) for integrals was not specified.
  | Using a version of the partition function of Stratmann and coworkers ('stratmann_sparse').
  | At each grid point, the set of atoms used to build the partition table is smoothly restricted to
  | only those atoms whose free-atom density would be non-zero at that grid point.
  Partitioning for Hartree potential was not defined. Using partition_type for integrals.
  | Adjusted default value of keyword multip_moments_threshold to:       0.10000000E-11
  | This value may affect high angular momentum components of the Hartree potential in periodic systems.
  Angular momentum expansion for Kerker preconditioner not set explicitly.
  | Using default value of   0
  No explicit requirement for turning off preconditioner.
  | By default, it will be turned off when the charge convergence reaches
  | sc_accuracy_rho  =   0.100000E-05
  No special mixing parameter while Kerker preconditioner is on.
  Using default: charge_mix_param =     0.0500.
  No q(lm)/r^(l+1) cutoff set for long-range Hartree potential.
  | Using default value of  0.100000E-09 .
  | Verify using the multipole_threshold keyword.
  Defaulting to new monopole extrapolation.
  Density update method: automatic selection selected.
  Using density matrix based charge density update.
  Using density matrix based charge density update.
  Using packed matrix style: index .
  Defaulting to use time-reversal symmetry for k-point grid.
  Charge integration errors on the 3D integration grid will be compensated
  by explicit normalization and distribution of residual charges.
  Use the "compensate_multipole_errors" flag to change this behaviour.
 
  Consistency checks for the contents of geometry.in are next.
 

  Range separation radius for Ewald summation (hartree_convergence_parameter):      5.00000000 bohr.
  Number of empty states per atom not set in control.in .
  | Since you are using a method that relies on the unoccupied spectrum
  | (MP2,GW,RPA et al.), will use the full Hamiltonian size (see below)
  | as the max. possible number of states (occupied plus empty).

  Structure-dependent array size parameters: 
  | Maximum number of distinct radial functions  :       18
  | Maximum number of basis functions            :       69
  | Number of Kohn-Sham states (occupied + empty):       69
------------------------------------------------------------

------------------------------------------------------------
          Preparing all fixed parts of the calculation.
------------------------------------------------------------
  Determining machine precision:
    2.225073858507201E-308
  Setting up grids for atomic and cluster calculations.

  Creating wave function, potential, and density for free atoms.
  Runtime choices for atomic solver:
  | atomic solver xc        : PBE
  | compute density gradient: 1
  | compute kinetic density : F

  Species: O

  List of occupied orbitals and eigenvalues:
    n    l              occ      energy [Ha]    energy [eV]
    1    0           2.0000       -18.898576      -514.2564
    2    0           2.0000        -0.878795       -23.9132
    2    1           4.0000        -0.332075        -9.0362


  Species: H

  List of occupied orbitals and eigenvalues:
    n    l              occ      energy [Ha]    energy [eV]
    1    0           1.0000        -0.238382        -6.4867


  Adding cutoff potential to free-atom effective potential.
  Creating fixed part of basis set: Ionic, confined, hydrogenic.
 
  O                    hydrogenic:
 
  List of hydrogenic basis orbitals: 
    n    l      effective z      eigenvalue [eV]  inner max. [A]     outer max. [A]     outer radius [A]   
    2    1         1.800000       -11.0118           1.178562           1.178562           5.567066
    3    2         7.600000       -87.3182           0.624125           0.624125           3.764702
    3    0         6.400000       -61.9209           0.061167           1.081902           4.522403
    4    3        11.600000      -114.4238           0.731631           0.731631           3.811008
    3    1         6.200000       -58.1113           0.255680           1.030270           4.522403
    3    2         5.600000       -47.4081           0.847233           0.847233           4.578029
    5    4        17.600000      -168.5799           0.749740           0.749740           3.629133
    1    0         0.750000        -7.6499           0.705284           0.705284           5.567066
 
 
  H                    hydrogenic:
 
  List of hydrogenic basis orbitals: 
    n    l      effective z      eigenvalue [eV]  inner max. [A]     outer max. [A]     outer radius [A]   
    2    0         2.100000       -14.9965           0.193243           1.317208           5.573719
    2    1         3.500000       -41.6672           0.602369           0.602369           4.259334
    1    0         0.850000        -9.8292           0.624871           0.624871           5.573719
    2    1         3.700000       -46.5653           0.573622           0.573622           4.105953
    2    0         1.200000        -4.5995           0.334980           2.228188           5.642276
    3    2         7.000000       -74.0753           0.680699           0.680699           3.958095
 
  Creating atomic-like basis functions for current effective potential.

  Species O                   :

  List of atomic basis orbitals and eigenvalues:
    n    l      energy [Ha]    energy [eV]    outer radius [A]
    1    0       -18.898576      -514.2564       1.807907
    2    0        -0.878795       -23.9132       5.366593
    2    1        -0.332075        -9.0362       5.499423


  Species H                   :

  List of atomic basis orbitals and eigenvalues:
    n    l      energy [Ha]    energy [eV]    outer radius [A]
    1    0        -0.238382        -6.4867       5.573719

  Assembling full basis from fixed parts.
  | Species O :   atomic orbital   1 s accepted.
  | Species O :    hydro orbital   3 s accepted.
  | Species O :   atomic orbital   2 s accepted.
  | Species O :    hydro orbital   1 s accepted.
  | Species O :    hydro orbital   3 p accepted.
  | Species O :   atomic orbital   2 p accepted.
  | Species O :    hydro orbital   2 p accepted.
  | Species O :    hydro orbital   3 d accepted.
  | Species O :    hydro orbital   3 d accepted.
  | Species O :    hydro orbital   4 f accepted.
  | Species O :    hydro orbital   5 g accepted.
  | Species H :   atomic orbital   1 s accepted.
  | Species H :    hydro orbital   2 s accepted.
  | Species H :    hydro orbital   1 s accepted.
  | Species H :    hydro orbital   2 s accepted.
  | Species H :    hydro orbital   2 p accepted.
  | Species H :    hydro orbital   2 p accepted.
  | Species H :    hydro orbital   3 d accepted.
 
  Basis size parameters after reduction:
  | Total number of radial functions:       18
  | Total number of basis functions :       69
 
  Per-task memory consumption for arrays in subroutine allocate_ext:
  |           4.499020MB.
  Testing on-site integration grid accuracy.
  |  Species  Function  <phi|h_atom|phi> (log., in eV)  <phi|h_atom|phi> (rad., in eV)
           1        1               -514.2564144315               -514.2564099626
           1        2                 15.1726678541                 15.1726530877
           1        3                -21.5447785304                -21.5447874973
           1        4                 14.4944558459                 14.4944698284
           1        5                 20.8882174564                 20.8882178906
           1        6                 -2.4850315909                 -2.4850322289
           1        7                 13.8600193195                 13.8599826966
           1        8                 45.8243383616                 45.8243383675
           1        9                 52.1840606465                 52.1840622440
           1       10                 85.4074185510                 85.4074185819
           1       11                142.0983717302                142.0983717339
           2       12                 -6.4869821809                 -6.4870742227
           2       13                 13.5044133542                 13.5041049177
           2       14                 32.7854418792                 32.7779770519
           2       15                 33.7995553101                 33.7152624900 ***
           2       16                 28.8558651799                 28.8558652046
           2       17                 59.6361831893                 59.6362535845
           2       18                 60.2733718049                 60.2733715484
 * Note: Onsite integrals marked "***" above are less accurate than
 * onsite_accuracy_threshold =    0.03000 eV. Usually, this is harmless.
 * When in doubt, tighten the "radial" and/or "radial_multiplier" flags to check.

  Preparing densities etc. for the partition functions (integrals / Hartree potential).

  Preparations completed.
  max(cpu_time)          :      0.148 s.
  Wall clock time (cpu1) :      0.149 s.
------------------------------------------------------------

  Initializing index lists of integration centers etc. from given atomic structure:
  Mapping all atomic coordinates to central unit cell.

  Initializing the k-points
  Using symmetry for reducing the k-points
  | k-points reduced from:        1 to        1
  | Number of k-points                             :         1
  | Consuming          0 KiB for k_phase_exx.
  The eigenvectors in the calculations are REAL.
  | Number of basis functions in the Hamiltonian integrals :      1567
  | Number of basis functions in a single unit cell        :        69
  | Number of centers in hartree potential         :       657
  | Number of centers in hartree multipole         :       243
  | Number of centers in electron density summation:       189
  | Number of centers in basis integrals           :       208
  | Number of centers in integrals                 :        81
  | Number of centers in hamiltonian               :       189
  | Consuming          1 KiB for k_phase.
  | Number of super-cells (origin) [n_cells]                     :        1331
  | Number of super-cells (after PM_index) [n_cells]             :          72
  | Number of super-cells in hamiltonian [n_cells_in_hamiltonian]:          72
  | Size of matrix packed + index [n_hamiltonian_matrix_size] :       62393
  | Size of matrix packed + index (no_symmetry):      122788

------------------------------------------------------------
          Begin self-consistency loop: Initialization.

          Date     :  20221003, Time     :  094415.603
------------------------------------------------------------
  | Estimated reciprocal-space cutoff momentum G_max:         1.90186217 bohr^-1 .
  | Reciprocal lattice points for long-range Hartree potential:      92
  Using simple linear distribution as default method for k-point parallelism.
  * Using 16 tasks for Scalapack Eigenvalue solver.
  Detailed listing of tasks and assigned k-points:
   Task     0 k-point     1 on mpsd-hpc-ibm-056
   Task     1 k-point     1 on mpsd-hpc-ibm-056
   Task     2 k-point     1 on mpsd-hpc-ibm-056
   Task     3 k-point     1 on mpsd-hpc-ibm-056
   Task     4 k-point     1 on mpsd-hpc-ibm-057
   Task     5 k-point     1 on mpsd-hpc-ibm-057
   Task     6 k-point     1 on mpsd-hpc-ibm-057
   Task     7 k-point     1 on mpsd-hpc-ibm-057
   Task     8 k-point     1 on mpsd-hpc-ibm-058
   Task     9 k-point     1 on mpsd-hpc-ibm-058
   Task    10 k-point     1 on mpsd-hpc-ibm-058
   Task    11 k-point     1 on mpsd-hpc-ibm-058
   Task    12 k-point     1 on mpsd-hpc-ibm-059
   Task    13 k-point     1 on mpsd-hpc-ibm-059
   Task    14 k-point     1 on mpsd-hpc-ibm-059
   Task    15 k-point     1 on mpsd-hpc-ibm-059
  K-point:     1 Tasks:    16 split into      4 X      4 BLACS grid
  Calculating block size based on n_basis =           69  max_nprow =            4  max_npcol =            4
  ScaLAPACK block size set to:           16
  Allocating        0.003 MB for ovlp
  Allocating        0.003 MB for ham
  Allocating        0.003 MB for eigenvec
  Required Scalapack workspace - INTEGER:            1  REAL:             1
  Partitioning the integration grid into batches with parallel hashing+maxmin method.
  | Number of batches:      496
  | Maximal batch size:     170
  | Minimal batch size:      52
  | Average batch size:      94.536
  | Standard deviation of batch sizes:      23.747

  Integration load balanced across    16 MPI tasks.
  Work distribution over tasks is as follows:
  Task     0 has       2926 integration points.
  Task     1 has       2927 integration points.
  Task     2 has       2986 integration points.
  Task     3 has       2938 integration points.
  Task     4 has       2915 integration points.
  Task     5 has       2931 integration points.
  Task     6 has       2944 integration points.
  Task     7 has       2901 integration points.
  Task     8 has       2922 integration points.
  Task     9 has       2944 integration points.
  Task    10 has       2954 integration points.
  Task    11 has       2913 integration points.
  Task    12 has       2911 integration points.
  Task    13 has       2904 integration points.
  Task    14 has       2970 integration points.
  Task    15 has       2904 integration points.
  Initializing partition tables, free-atom densities, potentials, etc. across the integration grid (initialize_grid_storage).
  | initialize_grid_storage: Actual outermost partition radius vs. multipole_radius_free
  | (-- VB: in principle, multipole_radius_free should be larger, hence this output)
  | Species        1: Confinement radius =              6.000000000000000 AA, multipole_radius_free =              6.064445521808699 AA.
  | Species        1: outer_partition_radius set to              6.064445521808699 AA .
  | Species        2: Confinement radius =              6.000000000000000 AA, multipole_radius_free =              6.071692442739658 AA.
  | Species        2: outer_partition_radius set to              6.071692442739658 AA .
  | The sparse table of interatomic distances needs        420.04 kbyte instead of       346.11 kbyte of memory.
  | Using the partition_type stratmann_smoother will reduce your memory usage.
  | Net number of integration points:    46890
  | of which are non-zero points    :    37534
  | Numerical average free-atom electrostatic potential    :     -1.29049369 eV
  Renormalizing the initial density to the exact electron count on the 3D integration grid.
  | Initial density: Formal number of electrons (from input files) :      10.0000000000
  | Integrated number of electrons on 3D grid     :      10.0000033484
  | Charge integration error                      :       0.0000033484
  | Normalization factor for density and gradient :       0.9999996652
  Renormalizing the free-atom superposition density to the exact electron count on the 3D integration grid.
  | Formal number of electrons (from input files) :      10.0000000000
  | Integrated number of electrons on 3D grid     :      10.0000033484
  | Charge integration error                      :       0.0000033484
  | Normalization factor for density and gradient :       0.9999996652
  Obtaining max. number of non-zero basis functions in each batch (get_n_compute_maxes).
  | Maximal number of non-zero basis functions:      363 in task     0
  | Maximal number of non-zero basis functions:      387 in task     1
  | Maximal number of non-zero basis functions:      386 in task     2
  | Maximal number of non-zero basis functions:      422 in task     3
  | Maximal number of non-zero basis functions:      351 in task     4
  | Maximal number of non-zero basis functions:      351 in task     5
  | Maximal number of non-zero basis functions:      422 in task     6
  | Maximal number of non-zero basis functions:      369 in task     7
  | Maximal number of non-zero basis functions:      382 in task     8
  | Maximal number of non-zero basis functions:      412 in task     9
  | Maximal number of non-zero basis functions:      378 in task    10
  | Maximal number of non-zero basis functions:      390 in task    11
  | Maximal number of non-zero basis functions:      410 in task    12
  | Maximal number of non-zero basis functions:      390 in task    13
  | Maximal number of non-zero basis functions:      348 in task    14
  | Maximal number of non-zero basis functions:      353 in task    15
  Integrating Hamiltonian matrix: batch-based integration.
  Time summed over all CPUs for integration: real work        1.015 s, elapsed        1.078 s
  Integrating overlap matrix.
  Time summed over all CPUs for integration: real work        0.598 s, elapsed        0.633 s
  Deallocating overlap matrix.

  Updating Kohn-Sham eigenvalues and eigenvectors using ELSI and the ELPA eigensolver.
  Singularity check in k-point 1 (analysis for other k-points may follow below):
  Overlap matrix is not singular
  | Lowest and highest eigenvalues :  0.1690E-03,  0.6944E+01
  Finished singularity check of overlap matrix
  | Time :     0.004 s
  Starting ELPA eigensolver
  Finished Cholesky decomposition
  | Time :     0.002 s
  Finished transformation to standard eigenproblem
  | Time :     0.002 s
  Finished solving standard eigenproblem
  | Time :     0.004 s
  Finished back-transformation of eigenvectors
  | Time :     0.000 s

  Obtaining occupation numbers and electronic chemical potential using ELSI.
  | Note that, for insulating systems, the printed 'chemical potential' value is not uniquely defined.
  | It can be anywhere in the energy gap, as long as it correctly separates occupied and unoccupied states.
  | In systems with a gap, the physically relevant chemical potential is the VBM or HOMO.

  | Chemical potential (Fermi level):   -11.86533007 eV
  Writing Kohn-Sham eigenvalues.

  State    Occupation    Eigenvalue [Ha]    Eigenvalue [eV]
      1       2.00000         -19.016564         -517.46703
      2       2.00000          -1.118919          -30.44732
      3       2.00000          -0.631814          -17.19255
      4       2.00000          -0.509849          -13.87369
      5       2.00000          -0.443286          -12.06241
      6       0.00000          -0.121465           -3.30524
      7       0.00000           0.023914            0.65072
      8       0.00000           0.111954            3.04643
      9       0.00000           0.185793            5.05569
     10       0.00000           0.202941            5.52230
     11       0.00000           0.212983            5.79557
     12       0.00000           0.324163            8.82092
     13       0.00000           0.403239           10.97268
     14       0.00000           0.446022           12.13688
     15       0.00000           0.450385           12.25560
     16       0.00000           0.522004           14.20444
     17       0.00000           0.534746           14.55119
     18       0.00000           0.700746           19.06828
     19       0.00000           0.884254           24.06177
     20       0.00000           0.938568           25.53973
     21       0.00000           1.038872           28.26914
     22       0.00000           1.091496           29.70111
     23       0.00000           1.101945           29.98546
     24       0.00000           1.131858           30.79941
     25       0.00000           1.357971           36.95226
     26       0.00000           1.402273           38.15778
     27       0.00000           1.417489           38.57185
     28       0.00000           1.793227           48.79620
     29       0.00000           2.098198           57.09486
     30       0.00000           2.150243           58.51110
     31       0.00000           2.229080           60.65635
     32       0.00000           2.275591           61.92199
     33       0.00000           2.348934           63.91774
     34       0.00000           2.463623           67.03860
     35       0.00000           2.668283           72.60769
     36       0.00000           2.673280           72.74365
     37       0.00000           2.740450           74.57144
     38       0.00000           2.809850           76.45992
     39       0.00000           2.948631           80.23633
     40       0.00000           3.233593           87.99055
     41       0.00000           3.287061           89.44548
     42       0.00000           3.355208           91.29985
     43       0.00000           3.447926           93.82284
     44       0.00000           3.585297           97.56091
     45       0.00000           3.639266           99.02947
     46       0.00000           3.661996           99.64797
     47       0.00000           3.827720          104.15755
     48       0.00000           3.978152          108.25101
     49       0.00000           4.080057          111.02399
     50       0.00000           4.254511          115.77113
     51       0.00000           4.270493          116.20601
     52       0.00000           4.914132          133.72035
     53       0.00000           5.018986          136.57355
     54       0.00000           5.057497          137.62148
     55       0.00000           5.389891          146.66641
     56       0.00000           5.439335          148.01184
     57       0.00000           5.818962          158.34201
     58       0.00000           5.867095          159.65177
     59       0.00000           5.955329          162.05274
     60       0.00000           6.004390          163.38776
     61       0.00000           6.348009          172.73811
     62       0.00000           6.413762          174.52734
     63       0.00000           6.814612          185.43504
     64       0.00000           7.090521          192.94291
     65       0.00000           7.212544          196.26330
     66       0.00000           8.139279          221.48106
     67       0.00000           8.616315          234.46186
     68       0.00000           8.693056          236.55008
     69       0.00000           9.296611          252.97365

  Highest occupied state (VBM) at    -12.06241458 eV (relative to internal zero)
  | Occupation number:      2.00000000
  | K-point:       1 at    0.000000    0.000000    0.000000 (in units of recip. lattice)

  Lowest unoccupied state (CBM) at    -3.30523829 eV (relative to internal zero)
  | Occupation number:      0.00000000
  | K-point:       1 at    0.000000    0.000000    0.000000 (in units of recip. lattice)

  ESTIMATED overall HOMO-LUMO gap:      8.75717630 eV between HOMO at k-point 1 and LUMO at k-point 1
  The gap value is above 0.2 eV. Unless you are using a very sparse k-point grid,
  this system is most likely an insulator or a semiconductor.
  Calculating total energy contributions from superposition of free atom densities.

  Total energy components:
  | Sum of eigenvalues            :         -43.44086217 Ha       -1182.08600358 eV
  | XC energy correction          :          -9.01571249 Ha        -245.33001905 eV
  | XC potential correction       :          11.59198574 Ha         315.43398107 eV
  | Free-atom electrostatic energy:         -35.57365598 Ha        -968.00843096 eV
  | Hartree energy correction     :           0.00000000 Ha           0.00000000 eV
  | Entropy correction            :          -0.00000000 Ha          -0.00000000 eV
  | ---------------------------
  | Total energy                  :         -76.43824490 Ha       -2079.99047251 eV
  | Total energy, T -> 0          :         -76.43824490 Ha       -2079.99047251 eV  <-- do not rely on this value for anything but (periodic) metals
  | Electronic free energy        :         -76.43824490 Ha       -2079.99047251 eV

  Derived energy quantities:
  | Kinetic energy                :          75.52937965 Ha        2055.25899061 eV
  | Electrostatic energy          :        -142.95191206 Ha       -3889.91944408 eV
  | Energy correction for multipole
  | error in Hartree potential    :           0.00000000 Ha           0.00000000 eV
  | Sum of eigenvalues per atom                           :        -394.02866786 eV
  | Total energy (T->0) per atom                          :        -693.33015750 eV  <-- do not rely on this value for anything but (periodic) metals
  | Electronic free energy per atom                       :        -693.33015750 eV
  Initialize hartree_potential_storage
  Max. number of atoms included in rho_multipole:            3

  End scf initialization - timings             :  max(cpu_time)    wall_clock(cpu1)
  | Time for scf. initialization                :        0.300 s           0.298 s
  | Boundary condition initialization           :        0.052 s           0.048 s
  | Integration                                 :        0.112 s           0.112 s
  | Solution of K.-S. eqns.                     :        0.028 s           0.027 s
  | Grid partitioning                           :        0.036 s           0.034 s
  | Preloading free-atom quantities on grid     :        0.108 s           0.104 s
  | Free-atom superposition energy              :        0.012 s           0.011 s
  | Total energy evaluation                     :        0.000 s           0.001 s

  Partial memory accounting:
  | Current value for overall tracked memory usage:
  |   Minimum:        0.721 MB (on task  5)
  |   Maximum:        0.725 MB (on task  0)
  |   Average:        0.722 MB
  | Peak value for overall tracked memory usage:
  |   Minimum:        3.483 MB (on task 14 after allocating wave)
  |   Maximum:        4.209 MB (on task  3 after allocating wave)
  |   Average:        3.812 MB
  | Largest tracked array allocation so far:
  |   Minimum:        0.924 MB (hamiltonian_shell on task 14)
  |   Maximum:        1.359 MB (hamiltonian_shell on task  3)
  |   Average:        1.119 MB
  Note:  These values currently only include a subset of arrays which are explicitly tracked.
  The "true" memory usage will be greater.
------------------------------------------------------------
  Evaluating new KS density using the density matrix
  Evaluating density matrix
  Finished density matrix calculation
  | Time :     0.000 s
  Time summed over all CPUs for getting density from density matrix: real work        1.999 s, elapsed        2.202 s
  Integration grid: deviation in total charge (<rho> - N_e) =  -1.243450E-14

  Time for density update prior                :  max(cpu_time)    wall_clock(cpu1)
  | self-consistency iterative process          :        0.144 s           0.141 s

------------------------------------------------------------
          Begin self-consistency iteration #    1

  Date     :  20221003, Time     :  094416.044
------------------------------------------------------------
  Pulay mixing of updated and previous charge densities.
  Renormalizing the density to the exact electron count on the 3D integration grid.
  | Formal number of electrons (from input files) :      10.0000000000
  | Integrated number of electrons on 3D grid     :       9.9996507643
  | Charge integration error                      :      -0.0003492357
  | Normalization factor for density and gradient :       1.0000349248

  Evaluating partitioned Hartree potential by multipole expansion.
  | Original multipole sum: apparent total charge =  -0.203546E-14
  | Sum of charges compensated after spline to logarithmic grids =   0.833899E-07
  | Analytical far-field extrapolation by fixed multipoles:
  | Hartree multipole sum: apparent total charge =  -0.204622E-14
  Summing up the Hartree potential.
  Time summed over all CPUs for potential: real work        2.503 s, elapsed        2.864 s
  | RMS charge density error from multipole expansion :   0.120285E-03
  | Average real-space part of the electrostatic potential :      0.00971082 eV

  Integrating Hamiltonian matrix: batch-based integration.
  Time summed over all CPUs for integration: real work        1.074 s, elapsed        1.123 s

  Updating Kohn-Sham eigenvalues and eigenvectors using ELSI and the ELPA eigensolver.
  Starting ELPA eigensolver
  Finished transformation to standard eigenproblem
  | Time :     0.001 s
  Finished solving standard eigenproblem
  | Time :     0.004 s
  Finished back-transformation of eigenvectors
  | Time :     0.000 s

  Obtaining occupation numbers and electronic chemical potential using ELSI.
  | Note that, for insulating systems, the printed 'chemical potential' value is not uniquely defined.
  | It can be anywhere in the energy gap, as long as it correctly separates occupied and unoccupied states.
  | In systems with a gap, the physically relevant chemical potential is the VBM or HOMO.

  | Chemical potential (Fermi level):   -11.36325616 eV
  Writing Kohn-Sham eigenvalues.

  State    Occupation    Eigenvalue [Ha]    Eigenvalue [eV]
      1       2.00000         -18.984741         -516.60108
      2       2.00000          -1.103961          -30.04032
      3       2.00000          -0.618999          -16.84383
      4       2.00000          -0.495232          -13.47595
      5       2.00000          -0.427607          -11.63577
      6       0.00000          -0.119792           -3.25970
      7       0.00000           0.027093            0.73725
      8       0.00000           0.114920            3.12713
      9       0.00000           0.189015            5.14337
     10       0.00000           0.205280            5.58595
     11       0.00000           0.215238            5.85692
     12       0.00000           0.326272            8.87832
     13       0.00000           0.405706           11.03982
     14       0.00000           0.448666           12.20883
     15       0.00000           0.453420           12.33820
     16       0.00000           0.525834           14.30866
     17       0.00000           0.536954           14.61126
     18       0.00000           0.705210           19.18975
     19       0.00000           0.886872           24.13302
     20       0.00000           0.941113           25.60899
     21       0.00000           1.042963           28.38048
     22       0.00000           1.096026           29.82438
     23       0.00000           1.107115           30.12614
     24       0.00000           1.138326           30.97543
     25       0.00000           1.364095           37.11892
     26       0.00000           1.411651           38.41296
     27       0.00000           1.428640           38.87526
     28       0.00000           1.800046           48.98173
     29       0.00000           2.103055           57.22703
     30       0.00000           2.156111           58.67075
     31       0.00000           2.234741           60.81040
     32       0.00000           2.284026           62.15151
     33       0.00000           2.354187           64.06068
     34       0.00000           2.472847           67.28958
     35       0.00000           2.674447           72.77541
     36       0.00000           2.679644           72.91682
     37       0.00000           2.747341           74.75896
     38       0.00000           2.813560           76.56087
     39       0.00000           2.956953           80.46278
     40       0.00000           3.242409           88.23044
     41       0.00000           3.293860           89.63049
     42       0.00000           3.365518           91.58042
     43       0.00000           3.454017           93.98858
     44       0.00000           3.589849           97.68477
     45       0.00000           3.646768           99.23362
     46       0.00000           3.669360           99.84837
     47       0.00000           3.837861          104.43351
     48       0.00000           3.988958          108.54508
     49       0.00000           4.083182          111.10905
     50       0.00000           4.264363          116.03923
     51       0.00000           4.281093          116.49446
     52       0.00000           4.921706          133.92644
     53       0.00000           5.026215          136.77026
     54       0.00000           5.065915          137.85056
     55       0.00000           5.399851          146.93743
     56       0.00000           5.449526          148.28914
     57       0.00000           5.828145          158.59189
     58       0.00000           5.877040          159.92238
     59       0.00000           5.965359          162.32568
     60       0.00000           6.013556          163.63718
     61       0.00000           6.358619          173.02682
     62       0.00000           6.420177          174.70190
     63       0.00000           6.825212          185.72346
     64       0.00000           7.100816          193.22305
     65       0.00000           7.222989          196.54752
     66       0.00000           8.152510          221.84109
     67       0.00000           8.627633          234.76985
     68       0.00000           8.704846          236.87091
     69       0.00000           9.308057          253.28513

  Highest occupied state (VBM) at    -11.63577417 eV (relative to internal zero)
  | Occupation number:      2.00000000
  | K-point:       1 at    0.000000    0.000000    0.000000 (in units of recip. lattice)

  Lowest unoccupied state (CBM) at    -3.25969568 eV (relative to internal zero)
  | Occupation number:      0.00000000
  | K-point:       1 at    0.000000    0.000000    0.000000 (in units of recip. lattice)

  ESTIMATED overall HOMO-LUMO gap:      8.37607850 eV between HOMO at k-point 1 and LUMO at k-point 1
  The gap value is above 0.2 eV. Unless you are using a very sparse k-point grid,
  this system is most likely an insulator or a semiconductor.

  Total energy components:
  | Sum of eigenvalues            :         -43.26108086 Ha       -1177.19390505 eV
  | XC energy correction          :          -9.03655939 Ha        -245.89729210 eV
  | XC potential correction       :          11.61908332 Ha         316.17134389 eV
  | Free-atom electrostatic energy:         -35.57365598 Ha        -968.00843096 eV
  | Hartree energy correction     :          -0.17048526 Ha          -4.63913998 eV
  | Entropy correction            :           0.00000000 Ha           0.00000000 eV
  | ---------------------------
  | Total energy                  :         -76.42269816 Ha       -2079.56742420 eV
  | Total energy, T -> 0          :         -76.42269816 Ha       -2079.56742420 eV  <-- do not rely on this value for anything but (periodic) metals
  | Electronic free energy        :         -76.42269816 Ha       -2079.56742420 eV

  Derived energy quantities:
  | Kinetic energy                :          75.66649611 Ha        2058.99011936 eV
  | Electrostatic energy          :        -143.05263488 Ha       -3892.66025146 eV
  | Energy correction for multipole
  | error in Hartree potential    :          -0.00012867 Ha          -0.00350142 eV
  | Sum of eigenvalues per atom                           :        -392.39796835 eV
  | Total energy (T->0) per atom                          :        -693.18914140 eV  <-- do not rely on this value for anything but (periodic) metals
  | Electronic free energy per atom                       :        -693.18914140 eV
  Evaluating new KS density using the density matrix
  Evaluating density matrix
  Finished density matrix calculation
  | Time :     0.000 s
  Time summed over all CPUs for getting density from density matrix: real work        2.211 s, elapsed        2.616 s
  Integration grid: deviation in total charge (<rho> - N_e) =  -3.552714E-15

  Self-consistency convergence accuracy:
  | Change of charge density      :  0.3401E+00
  | Change of unmixed KS density  :  0.9114E+01
  | Change of sum of eigenvalues  :  0.4892E+01 eV
  | Change of total energy        :  0.4230E+00 eV


------------------------------------------------------------
  End self-consistency iteration #     1       :  max(cpu_time)    wall_clock(cpu1)
  | Time for this iteration                     :        0.572 s           0.570 s
  | Charge density update                       :        0.168 s           0.167 s
  | Density mixing & preconditioning            :        0.108 s           0.108 s
  | Hartree multipole update                    :        0.004 s           0.004 s
  | Hartree multipole summation                 :        0.204 s           0.204 s
  | Integration                                 :        0.076 s           0.073 s
  | Solution of K.-S. eqns.                     :        0.008 s           0.007 s
  | Total energy evaluation                     :        0.008 s           0.001 s

  Partial memory accounting:
  | Current value for overall tracked memory usage:
  |   Minimum:        0.721 MB (on task  5)
  |   Maximum:        0.725 MB (on task  0)
  |   Average:        0.722 MB
  | Peak value for overall tracked memory usage:
  |   Minimum:        4.353 MB (on task 14 after allocating gradient_basis_wave)
  |   Maximum:        5.365 MB (on task  3 after allocating gradient_basis_wave)
  |   Average:        4.814 MB
  | Largest tracked array allocation so far:
  |   Minimum:        1.354 MB (gradient_basis_wave on task 14)
  |   Maximum:        1.642 MB (gradient_basis_wave on task  3)
  |   Average:        1.487 MB
  Note:  These values currently only include a subset of arrays which are explicitly tracked.
  The "true" memory usage will be greater.
------------------------------------------------------------

------------------------------------------------------------
          Begin self-consistency iteration #    2

  Date     :  20221003, Time     :  094416.617
------------------------------------------------------------
  Pulay mixing of updated and previous charge densities.
  Renormalizing the density to the exact electron count on the 3D integration grid.
  | Formal number of electrons (from input files) :      10.0000000000
  | Integrated number of electrons on 3D grid     :       9.9970555233
  | Charge integration error                      :      -0.0029444767
  | Normalization factor for density and gradient :       1.0002945344

  Evaluating partitioned Hartree potential by multipole expansion.
  | Original multipole sum: apparent total charge =  -0.388644E-14
  | Sum of charges compensated after spline to logarithmic grids =   0.765368E-06
  | Analytical far-field extrapolation by fixed multipoles:
  | Hartree multipole sum: apparent total charge =  -0.413242E-14
  Summing up the Hartree potential.
  Time summed over all CPUs for potential: real work        2.813 s, elapsed        2.889 s
  | RMS charge density error from multipole expansion :   0.108459E-02
  | Average real-space part of the electrostatic potential :      0.08699841 eV

  Integrating Hamiltonian matrix: batch-based integration.
  Time summed over all CPUs for integration: real work        1.040 s, elapsed        1.074 s

  Updating Kohn-Sham eigenvalues and eigenvectors using ELSI and the ELPA eigensolver.
  Starting ELPA eigensolver
  Finished transformation to standard eigenproblem
  | Time :     0.001 s
  Finished solving standard eigenproblem
  | Time :     0.005 s
  Finished back-transformation of eigenvectors
  | Time :     0.000 s

  Obtaining occupation numbers and electronic chemical potential using ELSI.
  | Note that, for insulating systems, the printed 'chemical potential' value is not uniquely defined.
  | It can be anywhere in the energy gap, as long as it correctly separates occupied and unoccupied states.
  | In systems with a gap, the physically relevant chemical potential is the VBM or HOMO.

  | Chemical potential (Fermi level):    -7.50167812 eV
  Highest occupied state (VBM) at     -8.44986410 eV (relative to internal zero)
  | Occupation number:      2.00000000
  | K-point:       1 at    0.000000    0.000000    0.000000 (in units of recip. lattice)

  Lowest unoccupied state (CBM) at    -2.88426448 eV (relative to internal zero)
  | Occupation number:      0.00000000
  | K-point:       1 at    0.000000    0.000000    0.000000 (in units of recip. lattice)

  ESTIMATED overall HOMO-LUMO gap:      5.56559962 eV between HOMO at k-point 1 and LUMO at k-point 1
  The gap value is above 0.2 eV. Unless you are using a very sparse k-point grid,
  this system is most likely an insulator or a semiconductor.

  Checking to see if s.c.f. parameters should be adjusted.
  The system likely has a gap. Increased the default Pulay mixing parameter (charge_mix_param). Value:   0.200000 .
  Kept the default occupation width. Value:   0.010000 eV.

  Total energy components:
  | Sum of eigenvalues            :         -41.91111120 Ha       -1140.45936158 eV
  | XC energy correction          :          -9.20218112 Ha        -250.40408860 eV
  | XC potential correction       :          11.83435111 Ha         322.02907831 eV
  | Free-atom electrostatic energy:         -35.57365598 Ha        -968.00843096 eV
  | Hartree energy correction     :          -1.50547109 Ha         -40.96595275 eV
  | Entropy correction            :           0.00000000 Ha           0.00000000 eV
  | ---------------------------
  | Total energy                  :         -76.35806828 Ha       -2077.80875558 eV
  | Total energy, T -> 0          :         -76.35806828 Ha       -2077.80875558 eV  <-- do not rely on this value for anything but (periodic) metals
  | Electronic free energy        :         -76.35806828 Ha       -2077.80875558 eV

  Derived energy quantities:
  | Kinetic energy                :          76.61550406 Ha        2084.81393961 eV
  | Electrostatic energy          :        -143.77139122 Ha       -3912.21860659 eV
  | Energy correction for multipole
  | error in Hartree potential    :          -0.00112080 Ha          -0.03049854 eV
  | Sum of eigenvalues per atom                           :        -380.15312053 eV
  | Total energy (T->0) per atom                          :        -692.60291853 eV  <-- do not rely on this value for anything but (periodic) metals
  | Electronic free energy per atom                       :        -692.60291853 eV
  Evaluating new KS density using the density matrix
  Evaluating density matrix
  Finished density matrix calculation
  | Time :     0.000 s
  Time summed over all CPUs for getting density from density matrix: real work        2.258 s, elapsed        2.648 s
  Integration grid: deviation in total charge (<rho> - N_e) =   1.776357E-15

  Self-consistency convergence accuracy:
  | Change of charge density      :  0.3069E+00
  | Change of unmixed KS density  :  0.2489E-01
  | Change of sum of eigenvalues  :  0.3673E+02 eV
  | Change of total energy        :  0.1759E+01 eV


------------------------------------------------------------
  End self-consistency iteration #     2       :  max(cpu_time)    wall_clock(cpu1)
  | Time for this iteration                     :        0.536 s           0.533 s
  | Charge density update                       :        0.172 s           0.169 s
  | Density mixing & preconditioning            :        0.080 s           0.077 s
  | Hartree multipole update                    :        0.004 s           0.004 s
  | Hartree multipole summation                 :        0.204 s           0.203 s
  | Integration                                 :        0.072 s           0.070 s
  | Solution of K.-S. eqns.                     :        0.008 s           0.007 s
  | Total energy evaluation                     :        0.004 s           0.001 s

  Partial memory accounting:
  | Current value for overall tracked memory usage:
  |   Minimum:        0.721 MB (on task  5)
  |   Maximum:        0.725 MB (on task  0)
  |   Average:        0.722 MB
  | Peak value for overall tracked memory usage:
  |   Minimum:        4.353 MB (on task 14 after allocating gradient_basis_wave)
  |   Maximum:        5.366 MB (on task  3 after allocating gradient_basis_wave)
  |   Average:        4.814 MB
  | Largest tracked array allocation so far:
  |   Minimum:        1.354 MB (gradient_basis_wave on task 14)
  |   Maximum:        1.642 MB (gradient_basis_wave on task  3)
  |   Average:        1.487 MB
  Note:  These values currently only include a subset of arrays which are explicitly tracked.
  The "true" memory usage will be greater.
------------------------------------------------------------

------------------------------------------------------------
          Begin self-consistency iteration #    3

  Date     :  20221003, Time     :  094417.152
------------------------------------------------------------
  Pulay mixing of updated and previous charge densities.
  Renormalizing the density to the exact electron count on the 3D integration grid.
  | Formal number of electrons (from input files) :      10.0000000000
  | Integrated number of electrons on 3D grid     :       9.9985036357
  | Charge integration error                      :      -0.0014963643
  | Normalization factor for density and gradient :       1.0001496588

  Evaluating partitioned Hartree potential by multipole expansion.
  | Original multipole sum: apparent total charge =  -0.922415E-15
  | Sum of charges compensated after spline to logarithmic grids =   0.435882E-06
  | Analytical far-field extrapolation by fixed multipoles:
  | Hartree multipole sum: apparent total charge =  -0.150046E-14
  Summing up the Hartree potential.
  Time summed over all CPUs for potential: real work        2.877 s, elapsed        3.140 s
  | RMS charge density error from multipole expansion :   0.146881E-02
  | Average real-space part of the electrostatic potential :      0.09316903 eV

  Integrating Hamiltonian matrix: batch-based integration.
  Time summed over all CPUs for integration: real work        1.037 s, elapsed        1.074 s

  Updating Kohn-Sham eigenvalues and eigenvectors using ELSI and the ELPA eigensolver.
  Starting ELPA eigensolver
  Finished transformation to standard eigenproblem
  | Time :     0.001 s
  Finished solving standard eigenproblem
  | Time :     0.005 s
  Finished back-transformation of eigenvectors
  | Time :     0.000 s

  Obtaining occupation numbers and electronic chemical potential using ELSI.
  | Note that, for insulating systems, the printed 'chemical potential' value is not uniquely defined.
  | It can be anywhere in the energy gap, as long as it correctly separates occupied and unoccupied states.
  | In systems with a gap, the physically relevant chemical potential is the VBM or HOMO.

  | Chemical potential (Fermi level):    -8.59543973 eV
  Highest occupied state (VBM) at     -9.07102308 eV (relative to internal zero)
  | Occupation number:      2.00000000
  | K-point:       1 at    0.000000    0.000000    0.000000 (in units of recip. lattice)

  Lowest unoccupied state (CBM) at    -2.92711476 eV (relative to internal zero)
  | Occupation number:      0.00000000
  | K-point:       1 at    0.000000    0.000000    0.000000 (in units of recip. lattice)

  ESTIMATED overall HOMO-LUMO gap:      6.14390832 eV between HOMO at k-point 1 and LUMO at k-point 1
  The gap value is above 0.2 eV. Unless you are using a very sparse k-point grid,
  this system is most likely an insulator or a semiconductor.

  Total energy components:
  | Sum of eigenvalues            :         -42.24570077 Ha       -1149.56400715 eV
  | XC energy correction          :          -9.16160275 Ha        -249.29989511 eV
  | XC potential correction       :          11.78203124 Ha         320.60538223 eV
  | Free-atom electrostatic energy:         -35.57365598 Ha        -968.00843096 eV
  | Hartree energy correction     :          -1.16394371 Ha         -31.67251987 eV
  | Entropy correction            :           0.00000000 Ha           0.00000000 eV
  | ---------------------------
  | Total energy                  :         -76.36287198 Ha       -2077.93947086 eV
  | Total energy, T -> 0          :         -76.36287198 Ha       -2077.93947086 eV  <-- do not rely on this value for anything but (periodic) metals
  | Electronic free energy        :         -76.36287198 Ha       -2077.93947086 eV

  Derived energy quantities:
  | Kinetic energy                :          76.16354949 Ha        2072.51563016 eV
  | Electrostatic energy          :        -143.36481872 Ha       -3901.15520591 eV
  | Energy correction for multipole
  | error in Hartree potential    :          -0.00072689 Ha          -0.01977975 eV
  | Sum of eigenvalues per atom                           :        -383.18800238 eV
  | Total energy (T->0) per atom                          :        -692.64649029 eV  <-- do not rely on this value for anything but (periodic) metals
  | Electronic free energy per atom                       :        -692.64649029 eV
  Evaluating new KS density using the density matrix
  Evaluating density matrix
  Finished density matrix calculation
  | Time :     0.000 s
  Time summed over all CPUs for getting density from density matrix: real work        2.171 s, elapsed        2.518 s
  Integration grid: deviation in total charge (<rho> - N_e) =   3.552714E-15

  Self-consistency convergence accuracy:
  | Change of charge density      :  0.1282E+00
  | Change of unmixed KS density  :  0.1993E+00
  | Change of sum of eigenvalues  : -0.9105E+01 eV
  | Change of total energy        : -0.1307E+00 eV


------------------------------------------------------------
  End self-consistency iteration #     3       :  max(cpu_time)    wall_clock(cpu1)
  | Time for this iteration                     :        0.532 s           0.530 s
  | Charge density update                       :        0.164 s           0.161 s
  | Density mixing & preconditioning            :        0.080 s           0.077 s
  | Hartree multipole update                    :        0.004 s           0.004 s
  | Hartree multipole summation                 :        0.212 s           0.209 s
  | Integration                                 :        0.072 s           0.070 s
  | Solution of K.-S. eqns.                     :        0.008 s           0.007 s
  | Total energy evaluation                     :        0.004 s           0.001 s

  Partial memory accounting:
  | Current value for overall tracked memory usage:
  |   Minimum:        0.721 MB (on task  5)
  |   Maximum:        0.725 MB (on task  0)
  |   Average:        0.722 MB
  | Peak value for overall tracked memory usage:
  |   Minimum:        4.353 MB (on task 14 after allocating gradient_basis_wave)
  |   Maximum:        5.366 MB (on task  3 after allocating gradient_basis_wave)
  |   Average:        4.814 MB
  | Largest tracked array allocation so far:
  |   Minimum:        1.354 MB (gradient_basis_wave on task 14)
  |   Maximum:        1.642 MB (gradient_basis_wave on task  3)
  |   Average:        1.487 MB
  Note:  These values currently only include a subset of arrays which are explicitly tracked.
  The "true" memory usage will be greater.
------------------------------------------------------------

------------------------------------------------------------
          Begin self-consistency iteration #    4

  Date     :  20221003, Time     :  094417.685
------------------------------------------------------------
  Pulay mixing of updated and previous charge densities.
  Renormalizing the density to the exact electron count on the 3D integration grid.
  | Formal number of electrons (from input files) :      10.0000000000
  | Integrated number of electrons on 3D grid     :       9.9964091065
  | Charge integration error                      :      -0.0035908935
  | Normalization factor for density and gradient :       1.0003592183

  Evaluating partitioned Hartree potential by multipole expansion.
  | Original multipole sum: apparent total charge =   0.148816E-14
  | Sum of charges compensated after spline to logarithmic grids =   0.546185E-06
  | Analytical far-field extrapolation by fixed multipoles:
  | Hartree multipole sum: apparent total charge =   0.154966E-14
  Summing up the Hartree potential.
  Time summed over all CPUs for potential: real work        2.908 s, elapsed        2.983 s
  | RMS charge density error from multipole expansion :   0.251528E-02
  | Average real-space part of the electrostatic potential :      0.14812113 eV

  Integrating Hamiltonian matrix: batch-based integration.
  Time summed over all CPUs for integration: real work        1.040 s, elapsed        1.073 s

  Updating Kohn-Sham eigenvalues and eigenvectors using ELSI and the ELPA eigensolver.
  Starting ELPA eigensolver
  Finished transformation to standard eigenproblem
  | Time :     0.001 s
  Finished solving standard eigenproblem
  | Time :     0.004 s
  Finished back-transformation of eigenvectors
  | Time :     0.000 s

  Obtaining occupation numbers and electronic chemical potential using ELSI.
  | Note that, for insulating systems, the printed 'chemical potential' value is not uniquely defined.
  | It can be anywhere in the energy gap, as long as it correctly separates occupied and unoccupied states.
  | In systems with a gap, the physically relevant chemical potential is the VBM or HOMO.

  | Chemical potential (Fermi level):    -7.37844955 eV
  Highest occupied state (VBM) at     -7.82801762 eV (relative to internal zero)
  | Occupation number:      2.00000000
  | K-point:       1 at    0.000000    0.000000    0.000000 (in units of recip. lattice)

  Lowest unoccupied state (CBM) at    -2.71213239 eV (relative to internal zero)
  | Occupation number:      0.00000000
  | K-point:       1 at    0.000000    0.000000    0.000000 (in units of recip. lattice)

  ESTIMATED overall HOMO-LUMO gap:      5.11588523 eV between HOMO at k-point 1 and LUMO at k-point 1
  The gap value is above 0.2 eV. Unless you are using a very sparse k-point grid,
  this system is most likely an insulator or a semiconductor.

  Total energy components:
  | Sum of eigenvalues            :         -41.78672072 Ha       -1137.07452462 eV
  | XC energy correction          :          -9.22722459 Ha        -251.08555616 eV
  | XC potential correction       :          11.86811678 Ha         322.94788897 eV
  | Free-atom electrostatic energy:         -35.57365598 Ha        -968.00843096 eV
  | Hartree energy correction     :          -1.63286428 Ha         -44.43249763 eV
  | Entropy correction            :           0.00000000 Ha           0.00000000 eV
  | ---------------------------
  | Total energy                  :         -76.35234879 Ha       -2077.65312039 eV
  | Total energy, T -> 0          :         -76.35234879 Ha       -2077.65312039 eV  <-- do not rely on this value for anything but (periodic) metals
  | Electronic free energy        :         -76.35234879 Ha       -2077.65312039 eV

  Derived energy quantities:
  | Kinetic energy                :          76.21853405 Ha        2074.01183604 eV
  | Electrostatic energy          :        -143.34365825 Ha       -3900.57940028 eV
  | Energy correction for multipole
  | error in Hartree potential    :          -0.00094065 Ha          -0.02559627 eV
  | Sum of eigenvalues per atom                           :        -379.02484154 eV
  | Total energy (T->0) per atom                          :        -692.55104013 eV  <-- do not rely on this value for anything but (periodic) metals
  | Electronic free energy per atom                       :        -692.55104013 eV
  Evaluating new KS density using the density matrix
  Evaluating density matrix
  Finished density matrix calculation
  | Time :     0.000 s
  Time summed over all CPUs for getting density from density matrix: real work        2.232 s, elapsed        2.588 s
  Integration grid: deviation in total charge (<rho> - N_e) =  -3.552714E-15

  Self-consistency convergence accuracy:
  | Change of charge density      :  0.1163E+00
  | Change of unmixed KS density  :  0.6458E-01
  | Change of sum of eigenvalues  :  0.1249E+02 eV
  | Change of total energy        :  0.2864E+00 eV


------------------------------------------------------------
  End self-consistency iteration #     4       :  max(cpu_time)    wall_clock(cpu1)
  | Time for this iteration                     :        0.548 s           0.545 s
  | Charge density update                       :        0.168 s           0.165 s
  | Density mixing & preconditioning            :        0.100 s           0.098 s
  | Hartree multipole update                    :        0.004 s           0.004 s
[...]
  0.000000000000000E+000  0.000000000000000E+000  0.000000000000000E+000
  0.000000000000000E+000  0.000000000000000E+000  0.000000000000000E+000
 FOU  0.000000000000000E+000  0.000000000000000E+000  0.000000000000000E+000
 FOU -1.627254152330696E-005 -2.073976015458382E-004 -1.775241981988421E-004
 -1.709282668299274E-004 -2.218569170164245E-004 -1.926625070463089E-004
  2.348643771058403E-005  8.904271205920509E-005 -1.769026342331081E-004
  0.000000000000000E+000  0.000000000000000E+000  0.000000000000000E+000
 FOU  3.635347223482020E-004  4.157944548955971E-005  2.355010215826669E-006
 -5.722557301658449E-002  6.810464651450896E-004 -6.035328246602181E-004
 -0.132891851251364       2.896946335574972E-003 -3.420823012259928E-003
  0.000000000000000E+000  0.000000000000000E+000  0.000000000000000E+000
 -1.923298574905401E-005 -9.696048715824818E-003 -6.697791639099334E-003
  0.000000000000000E+000  0.000000000000000E+000  0.000000000000000E+000
  0.000000000000000E+000  0.000000000000000E+000  0.000000000000000E+000
 -9.250992649824732E-006 -5.870996562551899E-005 -7.126445327486045E-004
  0.000000000000000E+000  0.000000000000000E+000  0.000000000000000E+000
 FOU  0.000000000000000E+000  0.000000000000000E+000  0.000000000000000E+000
  0.000000000000000E+000  0.000000000000000E+000  0.000000000000000E+000
  0.000000000000000E+000  0.000000000000000E+000  0.000000000000000E+000
  End CPSCF iteration #     6                  :  max(cpu_time)    wall_clock(cpu1)
  | Time for this iteration                     :        1.324 s           1.322 s
  | first_order_DM                              :        0.008 s           0.004 s
  | first_order_density                         :        0.140 s           0.137 s
  | first_order_potential                       :        0.260 s           0.257 s
  | first_order_H                               :        0.916 s           0.916 s
  | Solution of Sternheimer eqns.               :        0.004 s           0.003 s
------------------------------------------------------------

--------------------- CPSCF ---------------------------------------
          Begin CP-self-consistency iteration #    7

  Date     :  20221003, Time     :  094450.812
------------------------------------------------------------

  CPSCF convergence accuracy:
  | Change of first_order_density_matrix     :  0.1257E-03
  Integrating first_order_rho: batch-based integration.
  Time summed over all CPUs for integration: real work        2.100 s, elapsed        2.342 s

  Evaluating partitioned Hartree potential by multipole expansion.
  | Original multipole sum: apparent total charge =  -0.676438E-16
  | Sum of charges compensated after spline to logarithmic grids =   0.474636E-06
  | Analytical far-field extrapolation by fixed multipoles:
  | Hartree multipole sum: apparent total charge =   0.233679E-15
  Summing up the Hartree potential.
  Time summed over all CPUs for potential: real work        3.611 s, elapsed        3.958 s
  | RMS delta_rho error from multipole expansion :   0.207572E-01

  Integrating first-order-Hamiltonian matrix: batch-based integration.
  Time summed over all CPUs for integration: real work       13.898 s, elapsed       14.974 s
 FOH  2.844099098422514E-002 -4.698917200993155E-005 -4.182452616669163E-005
  0.000000000000000E+000  8.365918857015226E-003  4.206422069483065E-003
  0.000000000000000E+000  0.000000000000000E+000  2.297734152126608E-002
 FOH -2.787561168179004E-003 -1.101550907887171E-004  8.824132285004367E-006
  7.802702933976442E-003  3.719398841891558E-004 -7.852857190330549E-004
  1.914265571292826E-002  9.032662055804194E-004  3.356061621005231E-005
 FOH  0.000000000000000E+000  0.000000000000000E+000  0.000000000000000E+000
  0.000000000000000E+000  0.000000000000000E+000  0.000000000000000E+000
  0.000000000000000E+000  0.000000000000000E+000  0.000000000000000E+000
 FOH -1.577800428612219E-003  2.705454865260132E-003 -7.701598864062773E-004
 FOH  0.000000000000000E+000  0.000000000000000E+000  0.000000000000000E+000
 FOH  1.659320967717908E-002 -8.847346844748159E-003  3.913180211341760E-003
  0.000000000000000E+000  1.595100800632353E-002  2.600258689196221E-005
  0.000000000000000E+000  0.000000000000000E+000  7.985734840578011E-003
 FOH  0.000000000000000E+000  0.000000000000000E+000  0.000000000000000E+000
  0.000000000000000E+000  0.000000000000000E+000  0.000000000000000E+000
  0.000000000000000E+000  0.000000000000000E+000  0.000000000000000E+000
 FOH  0.000000000000000E+000  0.000000000000000E+000  0.000000000000000E+000
  0.000000000000000E+000  0.000000000000000E+000  0.000000000000000E+000
  0.000000000000000E+000  0.000000000000000E+000  0.000000000000000E+000
 FOH  4.124662409545322E-002 -6.367288184879027E-003 -7.416353250506616E-004
  1.528148417007698E-003 -3.715928771007156E-004  2.107479642305926E-002
  2.054373143242180E-004  3.459523476033872E-004  5.119720268855344E-003
 FOH -1.216289763049866E-005  9.903219306872463E-005  1.496485244358317E-005
  7.751714829516286E-006  9.613562016811437E-004  6.501435711365673E-005
  1.118286934878716E-004 -1.040260947157970E-003 -2.410219761612821E-004
 FOH  0.000000000000000E+000  0.000000000000000E+000  0.000000000000000E+000
 FOH -1.294799971579832E-003 -1.329777143434051E-003  2.997227158127225E-002
  1.308037456978351E-002 -8.199589396126514E-003  1.978566512398420E-003
  1.265627374984320E-003  4.605252543189399E-004 -2.552572995238349E-002
 FOH -1.062886966023101E-002 -5.081669542121481E-004 -7.029908880452491E-003
  0.000000000000000E+000 -1.157648764109022E-002  1.655840396845817E-002
  0.000000000000000E+000  0.000000000000000E+000 -1.102320401544954E-002
  0.000000000000000E+000  0.000000000000000E+000  0.000000000000000E+000
 -3.045515158613842E-004 -1.689196261810427E-003  6.588896599846429E-002
 FOH -1.005416394186754E-002 -6.808203091498175E-005  5.228107123967919E-003
 -4.981179799759685E-005  3.064589086868794E-003 -1.225164355781704E-004
 -2.068510899595627E-007  3.813758596237766E-003 -6.557891120935211E-005
 FOH  1.418144400597820E-002  1.459732164872262E-003  4.364951074365708E-004
  0.000000000000000E+000  1.435628212441709E-002  2.785783498849256E-003
  0.000000000000000E+000  0.000000000000000E+000  1.485270998141835E-002
  0.000000000000000E+000  0.000000000000000E+000  0.000000000000000E+000
  4.870868804005417E-003 -4.115474999677632E-003 -5.107748054031713E-002
 FOH  0.000000000000000E+000  0.000000000000000E+000  0.000000000000000E+000
  0.000000000000000E+000  0.000000000000000E+000  0.000000000000000E+000
  0.000000000000000E+000  0.000000000000000E+000  0.000000000000000E+000
  0.000000000000000E+000  0.000000000000000E+000  0.000000000000000E+000
  0.000000000000000E+000  0.000000000000000E+000  0.000000000000000E+000
 FOU  1.622098328349708E-005  1.709388893681783E-004 -2.339519931908607E-005
  2.076110068743249E-004  2.218603192864431E-004 -8.925039129427384E-005
  1.771986338404381E-004  1.928111320667681E-004  1.765271395157740E-004
 FOU  0.000000000000000E+000  0.000000000000000E+000  0.000000000000000E+000
 FOU  7.368443605515357E-005  1.922430219871647E-005  9.346347485244214E-006
 -1.653821673824503E-004  9.697212997132120E-003  5.820085644344500E-005
 -4.123810237860879E-004  6.698269119430406E-003  7.133573246553792E-004
 FOU  3.635755702252273E-004  4.174102393768773E-005  2.399022224847749E-006
 -5.722699368037318E-002  6.804549578503776E-004 -6.038084221345126E-004
 -0.132895384928239       2.892432281279673E-003 -3.417979913558067E-003
 FOU  0.000000000000000E+000  0.000000000000000E+000  0.000000000000000E+000
  0.000000000000000E+000  0.000000000000000E+000  0.000000000000000E+000
  0.000000000000000E+000  0.000000000000000E+000  0.000000000000000E+000
 FOU -3.635755060855236E-004  5.722706275111676E-002  0.132894331484755     
 -4.174073014673971E-005 -6.803975667829154E-004 -2.892381698106929E-003
 -2.398879523674959E-006  6.037708592093907E-004  3.417902422577912E-003
 FOU  0.000000000000000E+000  0.000000000000000E+000  0.000000000000000E+000
  0.000000000000000E+000  0.000000000000000E+000  0.000000000000000E+000
  0.000000000000000E+000  0.000000000000000E+000  0.000000000000000E+000
 FOU  0.000000000000000E+000  0.000000000000000E+000  0.000000000000000E+000
  0.000000000000000E+000  0.000000000000000E+000  0.000000000000000E+000
  0.000000000000000E+000  0.000000000000000E+000  0.000000000000000E+000
 FOU  0.000000000000000E+000  0.000000000000000E+000  0.000000000000000E+000
 FOU -7.368415670343496E-005  1.653632771824623E-004  4.123601729481606E-004
 -1.922562423713131E-005 -9.697201099760046E-003 -6.698394624417368E-003
 -9.346306198880099E-006 -5.820604036784754E-005 -7.133677297861568E-004
 FOU  0.000000000000000E+000  0.000000000000000E+000  0.000000000000000E+000
  0.000000000000000E+000  0.000000000000000E+000  0.000000000000000E+000
  0.000000000000000E+000  0.000000000000000E+000  0.000000000000000E+000
 FOU  0.000000000000000E+000  0.000000000000000E+000  0.000000000000000E+000
  0.000000000000000E+000  0.000000000000000E+000  0.000000000000000E+000
  0.000000000000000E+000  0.000000000000000E+000  0.000000000000000E+000
 FOU  0.000000000000000E+000  0.000000000000000E+000  0.000000000000000E+000
  0.000000000000000E+000  0.000000000000000E+000  0.000000000000000E+000
  0.000000000000000E+000  0.000000000000000E+000  0.000000000000000E+000
 FOU -1.622098126543289E-005 -2.076102172688953E-004 -1.771879212329203E-004
 -1.709386027260938E-004 -2.218587053217907E-004 -1.927723641684689E-004
  2.339506875958124E-005  8.924960531443121E-005 -1.765368434729416E-004
 FOU  0.000000000000000E+000  0.000000000000000E+000  0.000000000000000E+000
 FOU  0.000000000000000E+000  0.000000000000000E+000  0.000000000000000E+000
  0.000000000000000E+000  0.000000000000000E+000  0.000000000000000E+000
  0.000000000000000E+000  0.000000000000000E+000  0.000000000000000E+000
  0.000000000000000E+000  0.000000000000000E+000  0.000000000000000E+000
  0.000000000000000E+000  0.000000000000000E+000  0.000000000000000E+000
  0.000000000000000E+000  0.000000000000000E+000  0.000000000000000E+000
  0.000000000000000E+000  0.000000000000000E+000  0.000000000000000E+000
  0.000000000000000E+000  0.000000000000000E+000  0.000000000000000E+000
  0.000000000000000E+000  0.000000000000000E+000  0.000000000000000E+000

  CP-self-consistency cycle converged.

  End CPSCF iteration #     7                  :  max(cpu_time)    wall_clock(cpu1)
  | Time for this iteration                     :        1.368 s           1.365 s
  | first_order_DM                              :        0.004 s           0.003 s
  | first_order_density                         :        0.148 s           0.148 s
  | first_order_potential                       :        0.268 s           0.266 s
  | first_order_H                               :        0.940 s           0.938 s
  | Solution of Sternheimer eqns.               :        0.004 s           0.003 s
------------------------------------------------------------
dP_dE (Bohr^3) at every cycle:--->
 (12.4336819687996,0.000000000000000E+000) (2.29081349965873,0.000000000000000E+000) (-0.228838760269737,0.000000000000000E+000)
 (2.29074847110592,0.000000000000000E+000) (11.2735752135003,0.000000000000000E+000) (0.116778022232020,0.000000000000000E+000)
 (-0.228841162196735,0.000000000000000E+000) (0.116787584707391,0.000000000000000E+000) (15.4170223112047,0.000000000000000E+000)
DFPT polarizability (Bohr^3)        xx        yy        zz        xy        xz        yz
  | Polarizability:--->                        12.433681969                   11.273575214                   15.417022311                    2.290813500                   -0.228838760                    0.116778022

DFPT for dielectric_constant:--->  # PARSE DFPT_dielectric_tensor
               1.185226449632766             0.034126596801926            -0.003409045784627
               0.034125628061693             1.167944163016597             0.001739659942039
              -0.003409081566498             0.001739802395688             1.229669724043078

                                               :  max(cpu_time)    wall_clock(cpu1)
  | Time for  dielectric calculation            :        0.000 s           0.001 s
===========================================================================

------------------------------------------------------------------------------
  Final output of selected total energy values:

  The following output summarizes some interesting total energy values
  at the end of a run (AFTER all relaxation, molecular dynamics, etc.).

  | Total energy of the DFT / Hartree-Fock s.c.f. calculation      :          -2077.627278170 eV
  | Final zero-broadening corrected energy (caution - metals only) :          -2077.627278170 eV
  | For reference only, the value of 1 Hartree used in FHI-aims is :             27.211384500 eV
  | For reference only, the overall average (free atom contribution
  | + realspace contribution) of the electrostatic potential after
  | s.c.f. convergence is                                          :             -1.114977003 eV

  Before relying on these values, please be sure to understand exactly which
  total energy value is referred to by a given number. Different objects may
  all carry the same name 'total energy'. Definitions:

  Total energy of the DFT / Hartree-Fock s.c.f. calculation:
  | Note that this energy does not include ANY quantities calculated after the
  | s.c.f. cycle, in particular not ANY RPA, MP2, etc. many-body perturbation terms.

  Final zero-broadening corrected energy:
  | For metallic systems only, a broadening of the occupation numbers at the Fermi
  | level can be extrapolated back to zero broadening by an electron-gas inspired
  | formula. For all systems that are not real metals, this value can be
  | meaningless and should be avoided.

------------------------------------------------------------------------------
  Methods described in the following list of references were used in this FHI-aims run.
  If you publish the results, please make sure to cite these reference if they apply.
  FHI-aims is an academic code, and for our developers (often, Ph.D. students
  and postdocs), scientific credit in the community is essential.
  Thank you for helping us!

  For any use of FHI-aims, please cite:

    Volker Blum, Ralf Gehrke, Felix Hanke, Paula Havu, Ville Havu,
    Xinguo Ren, Karsten Reuter, and Matthias Scheffler
    'Ab initio molecular simulations with numeric atom-centered orbitals'
    Computer Physics Communications 180, 2175-2196 (2009)
    http://doi.org/10.1016/j.cpc.2009.06.022


  The provided symmetry information was generated with SPGlib:

    Atsushi Togo, Yusuke Seto, Dimitar Pashov
    SPGlib 1.7.3 obtained from http://spglib.sourceforge.net
    Copyright (C) 2008 Atsushi Togo


  The DFPT (perturbation by an electric field) part of the code was used.
  Here is the corresponding reference:

    Honghui Shang, Nathaniel Raimbault, Mariana Rossi,
    Christian Carbogno, Patrick Rinke and Matthias Scheffler,
    'All-Electron, Real-Space Perturbation Theory for Homogeneous
    Electric Fields: Theory, Implementation, and Application within dft'
    New Journal of Physics, 20(7):073040, 2018


  The ELSI infrastructure was used in your run to solve the Kohn-Sham electronic structure.
  Please check out http://elsi-interchange.org to learn more.
  If scalability is important for your project, please acknowledge ELSI by citing:

    V. W-z. Yu, F. Corsetti, A. Garcia, W. P. Huhn, M. Jacquelin, W. Jia,
    B. Lange, L. Lin, J. Lu, W. Mi, A. Seifitokaldani, A. Vazquez-Mayagoitia,
    C. Yang, H. Yang, and V. Blum
    'ELSI: A unified software interface for Kohn-Sham electronic structure solvers'
    Computer Physics Communications 222, 267-285 (2018).
    http://doi.org/10.1016/j.cpc.2017.09.007


  For the real-space grid partitioning and parallelization used in this calculation, please cite:

    Ville Havu, Volker Blum, Paula Havu, and Matthias Scheffler,
    'Efficient O(N) integration for all-electron electronic structure calculation'
    'using numerically tabulated basis functions'
    Journal of Computational Physics 228, 8367-8379 (2009).
    http://doi.org/10.1016/j.jcp.2009.08.008

  Of course, there are many other important community references, e.g., those cited in the
  above references. Our list is limited to references that describe implementations in the
  FHI-aims code. The reason is purely practical (length of this list) - please credit others as well.

------------------------------------------------------------
          Leaving FHI-aims.
          Date     :  20221003, Time     :  094452.186

          Computational steps:
          | Number of self-consistency cycles          :           35
          | Number of SCF (re)initializations          :            1
          | Number of coupled perturbed self-consistency cycles          :            0
          | Number of CPSCF (re)initializations          :            0

          Detailed time accounting                     :  max(cpu_time)    wall_clock(cpu1)
          | Total time                                  :       36.788 s          36.869 s
          | Preparation time                            :        0.148 s           0.149 s
          | Boundary condition initalization            :        0.052 s           0.048 s
          | Grid partitioning                           :        0.036 s           0.034 s
          | Preloading free-atom quantities on grid     :        0.108 s           0.104 s
          | Free-atom superposition energy              :        0.012 s           0.011 s
          | Total time for integrations                 :        1.200 s           1.172 s
          | Total time for solution of K.-S. equations  :        0.140 s           0.130 s
          | Total time for density update               :        2.332 s           2.301 s
          | Total time for mixing & preconditioning     :        1.192 s           1.170 s
          | Total time for Hartree multipole update     :        0.072 s           0.071 s
          | Total time for Hartree multipole sum        :        2.932 s           2.915 s
          | Total time for total energy evaluation      :        0.060 s           0.019 s
          | Total time first_order_DM                   :        0.092 s           0.065 s
          | Total time first_order_density              :        3.052 s           3.020 s
          | Total time first_order_potential            :        5.252 s           5.216 s
          | Total time first_order_H                    :       19.212 s          19.187 s
          | Total time solving of Sternheimer equations :        0.108 s           0.088 s
          | Total time for dielectric constant          :        0.000 s           0.001 s
          | Total time momentum matrix                  :        0.000 s           0.000 s

          Partial memory accounting:
          | Residual value for overall tracked memory usage across tasks:     0.000000 MB (should be 0.000000 MB)
          | Peak values for overall tracked memory usage:
          |   Minimum:        9.290 MB (on task  5 after allocating DFPT_pulay_mixing::pulay_mix::alphas)
          |   Maximum:        9.294 MB (on task  0 after allocating DFPT_pulay_mixing::pulay_mix::alphas)
          |   Average:        9.291 MB
          | Largest tracked array allocation:
          |   Minimum:        3.332 MB (DFPT_pulay_mixing::initialize_pulay_mixing::X_in_diffs on task  0)
          |   Maximum:        3.332 MB (DFPT_pulay_mixing::initialize_pulay_mixing::X_in_diffs on task  0)
          |   Average:        3.332 MB
          Note:  These values currently only include a subset of arrays which are explicitly tracked.
          The "true" memory usage will be greater.

          Have a nice day.
------------------------------------------------------------
