------------------------------------------------------------
          Invoking FHI-aims ...

          When using FHI-aims, please cite the following reference:

            Volker Blum, Ralf Gehrke, Felix Hanke, Paula Havu,
            Ville Havu, Xinguo Ren, Karsten Reuter, and Matthias Scheffler,
            'Ab Initio Molecular Simulations with Numeric Atom-Centered Orbitals',
            Computer Physics Communications 180, 2175-2196 (2009)

          In addition, many other developments in FHI-aims are likely important for
          your particular application. A partial list of references is given at the end of
          this file. Thank you for giving credit to the authors of these developments.

          For any questions about FHI-aims, please visit our slack channel at

            https://fhi-aims.slack.com

          and our main development and support site at

            https://aims-git.rz-berlin.mpg.de .

          The latter site, in particular, has a wiki to collect information, as well
          as an issue tracker to log discussions, suggest improvements, and report issues
          or bugs. https://aims-git.rz-berlin.mpg.de is also the main development site
          of the project and all new and updated code versions can be obtained there.
          Please send an email to aims-coordinators@fhi-berlin.mpg.de and we will add
          you to these sites. They are for you and everyone is welcome there.

------------------------------------------------------------



  Date     :  20221003, Time     :  095905.831
  Time zero on CPU 1             :   0.400000000000000E-01  s.
  Internal wall clock time zero  :           434023145.831  s.

  FHI-aims created a unique identifier for this run for later identification
  aims_uuid : 9558DE56-E7C3-4B51-A53B-1DFFF32614DA

  Build configuration of the current instance of FHI-aims
  -------------------------------------------------------
  FHI-aims version      : 220810
  Commit number         : eae8be818
  CMake host system     : Linux-4.9.0-16-amd64
  CMake version         : 3.17.3
  Fortran compiler      : /opt/easybuild/software/impi/2017.3.196-iccifort-2017.4.196-GCC-6.4.0-2.28/bin64/mpiifort (Intel) version 17.0.4.20170411
  Fortran compiler flags: -O3 -ip -fp-model precise
  C compiler            : /opt/easybuild/software/icc/2017.4.196-GCC-6.4.0-2.28/compilers_and_libraries_2017.4.196/linux/bin/intel64/icc (Intel) version 17.0.4.20170411
  C compiler flags      : -O3 -ip -fp-model precise -std=gnu99
  Using MPI
  Using ScaLAPACK
  Using LibXC
  Using i-PI
  Using RLSY
  Linking against: /opt/easybuild/software/imkl/2017.3.196-iimpi-2017b/mkl/lib/intel64/libmkl_intel_lp64.so
                   /opt/easybuild/software/imkl/2017.3.196-iimpi-2017b/mkl/lib/intel64/libmkl_sequential.so
                   /opt/easybuild/software/imkl/2017.3.196-iimpi-2017b/mkl/lib/intel64/libmkl_core.so
                   /opt/easybuild/software/imkl/2017.3.196-iimpi-2017b/mkl/lib/intel64/libmkl_blacs_intelmpi_lp64.so
                   /opt/easybuild/software/imkl/2017.3.196-iimpi-2017b/mkl/lib/intel64/libmkl_scalapack_lp64.so

  Using       16 parallel tasks.
  Task        0 on host mpsd-hpc-ibm-056 reporting.
  Task        1 on host mpsd-hpc-ibm-056 reporting.
  Task        2 on host mpsd-hpc-ibm-056 reporting.
  Task        3 on host mpsd-hpc-ibm-056 reporting.
  Task        4 on host mpsd-hpc-ibm-057 reporting.
  Task        5 on host mpsd-hpc-ibm-057 reporting.
  Task        6 on host mpsd-hpc-ibm-057 reporting.
  Task        7 on host mpsd-hpc-ibm-057 reporting.
  Task        8 on host mpsd-hpc-ibm-058 reporting.
  Task        9 on host mpsd-hpc-ibm-058 reporting.
  Task       10 on host mpsd-hpc-ibm-058 reporting.
  Task       11 on host mpsd-hpc-ibm-058 reporting.
  Task       12 on host mpsd-hpc-ibm-059 reporting.
  Task       13 on host mpsd-hpc-ibm-059 reporting.
  Task       14 on host mpsd-hpc-ibm-059 reporting.
  Task       15 on host mpsd-hpc-ibm-059 reporting.

  Performing system and environment tests:
  | Environment variable OMP_NUM_THREADS correctly set to 1.
  | Checking for ScaLAPACK...
  | Testing pdtran()...
  | All pdtran() tests passed.

  Obtaining array dimensions for all initial allocations:
  
  -----------------------------------------------------------------------
  Parsing control.in (first pass over file, find array dimensions only).
  The contents of control.in will be repeated verbatim below
  unless switched off by setting 'verbatim_writeout .false.' .
  in the first line of control.in .
  -----------------------------------------------------------------------
  
  #########################################################################################
  #
  #  Volker Blum, 2017 : Test run input file control.in for simple H2O
  #
  #########################################################################################
  #
  #  Physical model
  #
    xc                 pbe
    spin               none
    relativistic       none
    charge             0.
  
  #  ri_density_restart         write
  #  ri_rho1 write
  #  ri_full_output .True.
  #  ri_output_density_only .True.
    DFPT dielectric
    sc_accuracy_rho    1d-6
  #  use_calculate_fock_matrix_old .false.
  #  output cube total_density
    k_grid 1 1 1
    wave_threshold 1e-8
  
  # prodbas_threshold 1e-2
  #
  #  Relaxation
  #
  #  relax_geometry   bfgs 1.e-2
  #
  
  ################################################################################
  
  ################################################################################
  #
  #  FHI-aims code project
  #  VB, Fritz-Haber Institut, 2009
  #
  #  Suggested "light" defaults for O atom (to be pasted into control.in file)
  #  Be sure to double-check any results obtained with these settings for post-processing,
  #  e.g., with the "tight" defaults and larger basis sets.
  #
  ################################################################################
    species        O
  #     global species definitions
      nucleus             8
      mass                15.9994
  #
      l_hartree           6
  #
      cut_pot             4.0  2.0  1.0
      basis_dep_cutoff    1e-4
  #
      radial_base         36 7.0
      radial_multiplier   2
       angular_grids specified
        division   0.2659   50
        division   0.4451  110
        division   0.6052  194
        division   0.7543  302
        division   0.8014  434
  #      division   0.8507  590
  #      division   0.8762  770
  #      division   0.9023  974
  #      division   1.2339 1202
  #      outer_grid 974
        outer_grid 434
  ################################################################################
  #
  #  Definition of "minimal" basis
  #
  ################################################################################
  #     valence basis states
      valence      2  s   2.
      valence      2  p   4.
  #     ion occupancy
      ion_occ      2  s   1.
      ion_occ      2  p   3.
  ################################################################################
  #
  #  Suggested additional basis functions. For production calculations,
  #  uncomment them one after another (the most important basis functions are
  #  listed first).
  #
  #
  ################################################################################
  #  "First tier" - improvements: -699.05 meV to -159.38 meV
       hydro 2 p 1.8
       hydro 3 d 7.6
       hydro 3 s 6.4
  #  "Second tier" - improvements: -49.91 meV to -5.39 meV
       hydro 4 f 11.6
       hydro 3 p 6.2
       hydro 3 d 5.6
       hydro 5 g 17.6
       hydro 1 s 0.75
  #  "Third tier" - improvements: -2.83 meV to -0.50 meV
  #     ionic 2 p auto
  #     hydro 4 f 10.8
  #     hydro 4 d 4.7
  #     hydro 2 s 6.8
  #  "Fourth tier" - improvements: -0.40 meV to -0.12 meV
  #     hydro 3 p 5
  #     hydro 3 s 3.3
  #     hydro 5 g 15.6
  #     hydro 4 f 17.6
  #     hydro 4 d 14
  # Further basis functions - -0.08 meV and below
  #     hydro 3 s 2.1
  #     hydro 4 d 11.6
  #     hydro 3 p 16
  #     hydro 2 s 17.2
  ################################################################################
  #
  #  FHI-aims code project
  #  VB, Fritz-Haber Institut, 2009
  #
  #  Suggested "light" defaults for H atom (to be pasted into control.in file)
  #  Be sure to double-check any results obtained with these settings for post-processing,
  #  e.g., with the "tight" defaults and larger basis sets.
  #
  ################################################################################
    species        H
  #     global species definitions
      nucleus             1
      mass                1.00794
  #
      l_hartree           6
  #
      cut_pot             4.0  2.0  1.0
      basis_dep_cutoff    1e-4
  #
      radial_base         24 7.0
      radial_multiplier   2
      angular_grids       specified
        division   0.2421   50
        division   0.3822  110
        division   0.4799  194
        division   0.5341  302
        division   0.5626  434
  #      division   0.5922  590
  #      division   0.6542  770
  #      division   0.6868 1202
  #      outer_grid  770
        outer_grid  434
  ################################################################################
  #
  #  Definition of "minimal" basis
  #
  ################################################################################
  #     valence basis states
      valence      1  s   1.
  #     ion occupancy
      ion_occ      1  s   0.5
  ################################################################################
  #
  #  Suggested additional basis functions. For production calculations,
  #  uncomment them one after another (the most important basis functions are
  #  listed first).
  #
  #  Basis constructed for dimers: 0.5 A, 0.7 A, 1.0 A, 1.5 A, 2.5 A
  #
  ################################################################################
  #  "First tier" - improvements: -1014.90 meV to -62.69 meV
       hydro 2 s 2.1
       hydro 2 p 3.5
  #  "Second tier" - improvements: -12.89 meV to -1.83 meV
      hydro 1 s 0.85
      hydro 2 p 3.7
      hydro 2 s 1.2
      hydro 3 d 7
  #  "Third tier" - improvements: -0.25 meV to -0.12 meV
  #    hydro 4 f 11.2
  #    hydro 3 p 4.8
  #    hydro 4 d 9
  #    hydro 3 s 3.2
  #
  
  
  -----------------------------------------------------------------------
  Completed first pass over input file control.in .
  -----------------------------------------------------------------------
  
  
  -----------------------------------------------------------------------
  Parsing geometry.in (first pass over file, find array dimensions only).
  The contents of geometry.in will be repeated verbatim below
  unless switched off by setting 'verbatim_writeout .false.' .
  in the first line of geometry.in .
  -----------------------------------------------------------------------
  
  #=======================================================
  # FHI-aims file: qmdata/data/geoms/264.in
  # Created using the Atomic Simulation Environment (ASE)
  # Wed Sep 21 12:30:23 2022
  #=======================================================
  lattice_vector 5.0000000000000000 0.0000000000000000 0.0000000000000000
  lattice_vector 0.0000000000000000 5.0000000000000000 0.0000000000000000
  lattice_vector 0.0000000000000000 0.0000000000000000 5.0000000000000000
  atom 0.0612558700000000 0.0056705000000000 0.0034173900000000 O
  atom -0.5171623800000000 -0.8411651600000000 -0.0288518900000000 H
  atom -0.4550922100000000 0.7511628500000000 -0.0253890700000000 H
  
  -----------------------------------------------------------------------
  Completed first pass over input file geometry.in .
  -----------------------------------------------------------------------
  

  Basic array size parameters:
  | Number of species                 :        2
  | Number of atoms                   :        3
  | Number of lattice vectors         :        3
  | Max. basis fn. angular momentum   :        4
  | Max. atomic/ionic basis occupied n:        2
  | Max. number of basis fn. types    :        2
  | Max. radial fns per species/type  :        8
  | Max. logarithmic grid size        :     1301
  | Max. radial integration grid size :       73
  | Max. angular integration grid size:      434
  | Max. angular grid division number :        8
  | Radial grid for Hartree potential :     1301
  | Number of spin channels           :        1

------------------------------------------------------------
          Reading file control.in.
------------------------------------------------------------
  XC: Using PBE gradient-corrected functionals.
  Spin treatment: No spin polarisation.
  Non-relativistic treatment of kinetic energy.
  Charge =   0.000000E+00: Neutral system requested explicitly.
  DFPT calculation will begin after the DFT/HF calculation.
  Convergence accuracy of self-consistent charge density:  0.1000E-05
  Found k-point grid:         1         1         1
  Threshold value for wave function integration:  0.1000E-07
 
  Reading configuration options for species O                   .
  | Found nuclear charge :   8.0000
  | Found atomic mass :    15.9994000000000      amu
  | Found l_max for Hartree potential  :   6
  | Found cutoff potl. onset [A], width [A], scale factor :    4.00000    2.00000    1.00000
  | Threshold for basis-dependent cutoff potential is   0.100000E-03
  | Found data for basic radial integration grid :    36 points, outermost radius =    7.000 A
  | Found multiplier for basic radial grid :   2
  | Found angular grid specification: user-specified.
  | Specified grid contains     6 separate shells.
  | Check grid settings after all constraints further below.
  | Found free-atom valence shell :  2 s   2.000
  | Found free-atom valence shell :  2 p   4.000
  | No ionic wave fns used. Skipping ion_occ.
  | No ionic wave fns used. Skipping ion_occ.
  | Found hydrogenic basis function :  2 p   1.800
  | Found hydrogenic basis function :  3 d   7.600
  | Found hydrogenic basis function :  3 s   6.400
  | Found hydrogenic basis function :  4 f  11.600
  | Found hydrogenic basis function :  3 p   6.200
  | Found hydrogenic basis function :  3 d   5.600
  | Found hydrogenic basis function :  5 g  17.600
  | Found hydrogenic basis function :  1 s   0.750
  Species O                   : Missing cutoff potential type.
  Defaulting to exp(1/x)/(1-x)^2 type cutoff potential.
  Species O : No 'logarithmic' tag. Using default grid for free atom:
  | Default logarithmic grid data [bohr] : 0.1000E-03 0.1000E+03 0.1012E+01
  Species O : On-site basis accuracy parameter (for Gram-Schmidt orthonormalisation) not specified.
  Using default value basis_acc =  0.1000000E-03.
  Species O                   : Using default innermost maximum threshold i_radial=  2 for radial functions.
  Species O                   : Default cutoff onset for free atom density etc. : 0.40000000E+01 AA.
  Species O                   : Basic radial grid will be enhanced according to radial_multiplier =   2, to contain    73 grid points.
 
  Reading configuration options for species H                   .
  | Found nuclear charge :   1.0000
  | Found atomic mass :    1.00794000000000      amu
  | Found l_max for Hartree potential  :   6
  | Found cutoff potl. onset [A], width [A], scale factor :    4.00000    2.00000    1.00000
  | Threshold for basis-dependent cutoff potential is   0.100000E-03
  | Found data for basic radial integration grid :    24 points, outermost radius =    7.000 A
  | Found multiplier for basic radial grid :   2
  | Found angular grid specification: user-specified.
  | Specified grid contains     6 separate shells.
  | Check grid settings after all constraints further below.
  | Found free-atom valence shell :  1 s   1.000
  | No ionic wave fns used. Skipping ion_occ.
  | Found hydrogenic basis function :  2 s   2.100
  | Found hydrogenic basis function :  2 p   3.500
  | Found hydrogenic basis function :  1 s   0.850
  | Found hydrogenic basis function :  2 p   3.700
  | Found hydrogenic basis function :  2 s   1.200
  | Found hydrogenic basis function :  3 d   7.000
  Species H                   : Missing cutoff potential type.
  Defaulting to exp(1/x)/(1-x)^2 type cutoff potential.
  Species H : No 'logarithmic' tag. Using default grid for free atom:
  | Default logarithmic grid data [bohr] : 0.1000E-03 0.1000E+03 0.1012E+01
  Species H : On-site basis accuracy parameter (for Gram-Schmidt orthonormalisation) not specified.
  Using default value basis_acc =  0.1000000E-03.
  Species H                   : Using default innermost maximum threshold i_radial=  2 for radial functions.
  Species H                   : Default cutoff onset for free atom density etc. : 0.40000000E+01 AA.
  Species H                   : Basic radial grid will be enhanced according to radial_multiplier =   2, to contain    49 grid points.
 
  Finished reading input file 'control.in'.
 
------------------------------------------------------------


------------------------------------------------------------
          Reading geometry description geometry.in.
------------------------------------------------------------
  | The smallest distance between any two atoms is         0.90730590 AA.
  | The first atom of this pair is atom number                      1 .
  | The second atom of this pair is atom number                     3 .
  | Wigner-Seitz cell of the first atom image           0     0     0 .
  | (The Wigner-Seitz cell of the second atom is 0 0 0  by definition.)

  Symmetry information by spglib:
  | Precision set to  0.1E-04
  | Number of Operations  : 1
  | Space group           : 1
  | International         : P1 ^5
  | Schoenflies           : C1^1
  Input structure read successfully.
  The structure contains        3 atoms,  and a total of         10.000 electrons.

  Input geometry:
  | Unit cell:
  |        5.00000000        0.00000000        0.00000000
  |        0.00000000        5.00000000        0.00000000
  |        0.00000000        0.00000000        5.00000000
  | Atomic structure:
  |       Atom                x [A]            y [A]            z [A]
  |    1: Species O             0.06125587        0.00567050        0.00341739
  |    2: Species H            -0.51716238       -0.84116516       -0.02885189
  |    3: Species H            -0.45509221        0.75116285       -0.02538907

  Lattice parameters for 3D lattice (in Angstroms) :     5.000000    5.000000    5.000000
  Angle(s) between unit vectors (in degrees)       :    90.000000   90.000000   90.000000


  Quantities derived from the lattice vectors (in Angstrom^-1):
  | Reciprocal lattice vector 1:  1.256637  0.000000  0.000000
  | Reciprocal lattice vector 2:  0.000000  1.256637  0.000000
  | Reciprocal lattice vector 3:  0.000000  0.000000  1.256637
  | Unit cell volume                               :   0.125000E+03  Angstrom^3

  Fractional coordinates:
                         L1                L2                L3
       atom_frac         0.01225117        0.00113410        0.00068348  O
       atom_frac        -0.10343248       -0.16823303       -0.00577038  H
       atom_frac        -0.09101844        0.15023257       -0.00507781  H

 
  Finished reading input file 'geometry.in'.
 

 
  Consistency checks for stacksize environment parameter are next.
 
  | Maximum stacksize for task 0: unlimited
  | Maximum stacksize for task 1: unlimited
  | Maximum stacksize for task 2: unlimited
  | Maximum stacksize for task 3: unlimited
  | Maximum stacksize for task 4: unlimited
  | Maximum stacksize for task 5: unlimited
  | Maximum stacksize for task 6: unlimited
  | Maximum stacksize for task 7: unlimited
  | Maximum stacksize for task 8: unlimited
  | Maximum stacksize for task 9: unlimited
  | Maximum stacksize for task 10: unlimited
  | Maximum stacksize for task 11: unlimited
  | Maximum stacksize for task 12: unlimited
  | Maximum stacksize for task 13: unlimited
  | Maximum stacksize for task 14: unlimited
  | Maximum stacksize for task 15: unlimited
  | Current stacksize for task 0: unlimited
  | Current stacksize for task 1: unlimited
  | Current stacksize for task 2: unlimited
  | Current stacksize for task 3: unlimited
  | Current stacksize for task 4: unlimited
  | Current stacksize for task 5: unlimited
  | Current stacksize for task 6: unlimited
  | Current stacksize for task 7: unlimited
  | Current stacksize for task 8: unlimited
  | Current stacksize for task 9: unlimited
  | Current stacksize for task 10: unlimited
  | Current stacksize for task 11: unlimited
  | Current stacksize for task 12: unlimited
  | Current stacksize for task 13: unlimited
  | Current stacksize for task 14: unlimited
  | Current stacksize for task 15: unlimited
 
  Consistency checks for the contents of control.in are next.
 
  MPI_IN_PLACE appears to work with this MPI implementation.
  | Keeping use_mpi_in_place .true. (see manual).
  Target number of points in a grid batch is not set. Defaulting to  100
  Method for grid partitioning is not set. Defaulting to parallel hash+maxmin partitioning.
  Batch size limit is not set. Defaulting to    200
  By default, will store active basis functions for each batch.
  If in need of memory, prune_basis_once .false. can be used to disable this option.
  communication_type for Hartree potential was not specified.
  Defaulting to calc_hartree .
  Defaulting to Pulay charge density mixer.
  Pulay mixer: Number of relevant iterations not set.
  Defaulting to    8 iterations.
  Pulay mixer: Number of initial linear mixing iterations not set.
  Defaulting to    0 iterations.
  Work space size for distributed Hartree potential not set.
  Defaulting to   0.200000E+03 MB.
  Mixing parameter for charge density mixing has not been set.
  Using default: charge_mix_param =     0.0500.
  The mixing parameter will be adjusted in iteration number     2 of the first full s.c.f. cycle only.
  Algorithm-dependent basis array size parameters:
  | n_max_pulay                         :        8
  Maximum number of self-consistency iterations not provided.
  Presetting  1000 iterations.
  Presetting      1001 iterations before the initial mixing cycle
  is restarted anyway using the sc_init_iter criterion / keyword.
  Presetting a factor      1.000 between actual scf density residual
  and density convergence criterion sc_accuracy_rho below which sc_init_iter
  takes no effect.
  Calculation of forces was not defined in control.in. No forces will be calculated.
  Geometry relaxation not requested: no relaxation will be performed.
  No accuracy limit for integral partition fn. given. Defaulting to  0.1000E-14.
  No occupation type (smearing scheme) given. Defaulting to Gaussian broadening, width =  0.1000E-01 eV.
  The width will be adjusted in iteration number     2 of the first full s.c.f. cycle only.
  S.C.F. convergence parameters will be adjusted in iteration number     2 of the first full s.c.f. cycle only.
  No accuracy for occupation numbers given. Defaulting to  0.1000E-12.
  No threshold value for occupation numbers given. Defaulting to  0.0000E+00.
  No accuracy for fermi level given. Defaulting to  0.1000E-19.
  Maximum # of iterations to find E_F not set. Defaulting to  200.
  Preferred method for the eigenvalue solver ('KS_method') not specified in 'control.in'.
  Calling BLACS routine to test compilation state
  Since ScaLAPACK support is enabled, defaulting to ELPA (via ELSI).
  Will not use alltoall communication since running on < 1024 CPUs.
  Threshold for basis singularities not set.
  Default threshold for basis singularities:  0.1000E-04
  partition_type (choice of integration weights) for integrals was not specified.
  | Using a version of the partition function of Stratmann and coworkers ('stratmann_sparse').
  | At each grid point, the set of atoms used to build the partition table is smoothly restricted to
  | only those atoms whose free-atom density would be non-zero at that grid point.
  Partitioning for Hartree potential was not defined. Using partition_type for integrals.
  | Adjusted default value of keyword multip_moments_threshold to:       0.10000000E-11
  | This value may affect high angular momentum components of the Hartree potential in periodic systems.
  Angular momentum expansion for Kerker preconditioner not set explicitly.
  | Using default value of   0
  No explicit requirement for turning off preconditioner.
  | By default, it will be turned off when the charge convergence reaches
  | sc_accuracy_rho  =   0.100000E-05
  No special mixing parameter while Kerker preconditioner is on.
  Using default: charge_mix_param =     0.0500.
  No q(lm)/r^(l+1) cutoff set for long-range Hartree potential.
  | Using default value of  0.100000E-09 .
  | Verify using the multipole_threshold keyword.
  Defaulting to new monopole extrapolation.
  Density update method: automatic selection selected.
  Using density matrix based charge density update.
  Using density matrix based charge density update.
  Using packed matrix style: index .
  Defaulting to use time-reversal symmetry for k-point grid.
  Charge integration errors on the 3D integration grid will be compensated
  by explicit normalization and distribution of residual charges.
  Use the "compensate_multipole_errors" flag to change this behaviour.
 
  Consistency checks for the contents of geometry.in are next.
 

  Range separation radius for Ewald summation (hartree_convergence_parameter):      5.00000000 bohr.
  Number of empty states per atom not set in control.in .
  | Since you are using a method that relies on the unoccupied spectrum
  | (MP2,GW,RPA et al.), will use the full Hamiltonian size (see below)
  | as the max. possible number of states (occupied plus empty).

  Structure-dependent array size parameters: 
  | Maximum number of distinct radial functions  :       18
  | Maximum number of basis functions            :       69
  | Number of Kohn-Sham states (occupied + empty):       69
------------------------------------------------------------

------------------------------------------------------------
          Preparing all fixed parts of the calculation.
------------------------------------------------------------
  Determining machine precision:
    2.225073858507201E-308
  Setting up grids for atomic and cluster calculations.

  Creating wave function, potential, and density for free atoms.
  Runtime choices for atomic solver:
  | atomic solver xc        : PBE
  | compute density gradient: 1
  | compute kinetic density : F

  Species: O

  List of occupied orbitals and eigenvalues:
    n    l              occ      energy [Ha]    energy [eV]
    1    0           2.0000       -18.898576      -514.2564
    2    0           2.0000        -0.878795       -23.9132
    2    1           4.0000        -0.332075        -9.0362


  Species: H

  List of occupied orbitals and eigenvalues:
    n    l              occ      energy [Ha]    energy [eV]
    1    0           1.0000        -0.238382        -6.4867


  Adding cutoff potential to free-atom effective potential.
  Creating fixed part of basis set: Ionic, confined, hydrogenic.
 
  O                    hydrogenic:
 
  List of hydrogenic basis orbitals: 
    n    l      effective z      eigenvalue [eV]  inner max. [A]     outer max. [A]     outer radius [A]   
    2    1         1.800000       -11.0118           1.178562           1.178562           5.567066
    3    2         7.600000       -87.3182           0.624125           0.624125           3.764702
    3    0         6.400000       -61.9209           0.061167           1.081902           4.522403
    4    3        11.600000      -114.4238           0.731631           0.731631           3.811008
    3    1         6.200000       -58.1113           0.255680           1.030270           4.522403
    3    2         5.600000       -47.4081           0.847233           0.847233           4.578029
    5    4        17.600000      -168.5799           0.749740           0.749740           3.629133
    1    0         0.750000        -7.6499           0.705284           0.705284           5.567066
 
 
  H                    hydrogenic:
 
  List of hydrogenic basis orbitals: 
    n    l      effective z      eigenvalue [eV]  inner max. [A]     outer max. [A]     outer radius [A]   
    2    0         2.100000       -14.9965           0.193243           1.317208           5.573719
    2    1         3.500000       -41.6672           0.602369           0.602369           4.259334
    1    0         0.850000        -9.8292           0.624871           0.624871           5.573719
    2    1         3.700000       -46.5653           0.573622           0.573622           4.105953
    2    0         1.200000        -4.5995           0.334980           2.228188           5.642276
    3    2         7.000000       -74.0753           0.680699           0.680699           3.958095
 
  Creating atomic-like basis functions for current effective potential.

  Species O                   :

  List of atomic basis orbitals and eigenvalues:
    n    l      energy [Ha]    energy [eV]    outer radius [A]
    1    0       -18.898576      -514.2564       1.807907
    2    0        -0.878795       -23.9132       5.366593
    2    1        -0.332075        -9.0362       5.499423


  Species H                   :

  List of atomic basis orbitals and eigenvalues:
    n    l      energy [Ha]    energy [eV]    outer radius [A]
    1    0        -0.238382        -6.4867       5.573719

  Assembling full basis from fixed parts.
  | Species O :   atomic orbital   1 s accepted.
  | Species O :    hydro orbital   3 s accepted.
  | Species O :   atomic orbital   2 s accepted.
  | Species O :    hydro orbital   1 s accepted.
  | Species O :    hydro orbital   3 p accepted.
  | Species O :   atomic orbital   2 p accepted.
  | Species O :    hydro orbital   2 p accepted.
  | Species O :    hydro orbital   3 d accepted.
  | Species O :    hydro orbital   3 d accepted.
  | Species O :    hydro orbital   4 f accepted.
  | Species O :    hydro orbital   5 g accepted.
  | Species H :   atomic orbital   1 s accepted.
  | Species H :    hydro orbital   2 s accepted.
  | Species H :    hydro orbital   1 s accepted.
  | Species H :    hydro orbital   2 s accepted.
  | Species H :    hydro orbital   2 p accepted.
  | Species H :    hydro orbital   2 p accepted.
  | Species H :    hydro orbital   3 d accepted.
 
  Basis size parameters after reduction:
  | Total number of radial functions:       18
  | Total number of basis functions :       69
 
  Per-task memory consumption for arrays in subroutine allocate_ext:
  |           4.499020MB.
  Testing on-site integration grid accuracy.
  |  Species  Function  <phi|h_atom|phi> (log., in eV)  <phi|h_atom|phi> (rad., in eV)
           1        1               -514.2564144315               -514.2564099626
           1        2                 15.1726678541                 15.1726530877
           1        3                -21.5447785304                -21.5447874973
           1        4                 14.4944558459                 14.4944698284
           1        5                 20.8882174564                 20.8882178906
           1        6                 -2.4850315909                 -2.4850322289
           1        7                 13.8600193195                 13.8599826966
           1        8                 45.8243383616                 45.8243383675
           1        9                 52.1840606465                 52.1840622440
           1       10                 85.4074185510                 85.4074185819
           1       11                142.0983717302                142.0983717339
           2       12                 -6.4869821809                 -6.4870742227
           2       13                 13.5044133542                 13.5041049177
           2       14                 32.7854418792                 32.7779770519
           2       15                 33.7995553101                 33.7152624900 ***
           2       16                 28.8558651799                 28.8558652046
           2       17                 59.6361831893                 59.6362535845
           2       18                 60.2733718049                 60.2733715484
 * Note: Onsite integrals marked "***" above are less accurate than
 * onsite_accuracy_threshold =    0.03000 eV. Usually, this is harmless.
 * When in doubt, tighten the "radial" and/or "radial_multiplier" flags to check.

  Preparing densities etc. for the partition functions (integrals / Hartree potential).

  Preparations completed.
  max(cpu_time)          :      0.144 s.
  Wall clock time (cpu1) :      0.149 s.
------------------------------------------------------------

  Initializing index lists of integration centers etc. from given atomic structure:
  Mapping all atomic coordinates to central unit cell.

  Initializing the k-points
  Using symmetry for reducing the k-points
  | k-points reduced from:        1 to        1
  | Number of k-points                             :         1
  | Consuming          0 KiB for k_phase_exx.
  The eigenvectors in the calculations are REAL.
  | Number of basis functions in the Hamiltonian integrals :      1574
  | Number of basis functions in a single unit cell        :        69
  | Number of centers in hartree potential         :       657
  | Number of centers in hartree multipole         :       243
  | Number of centers in electron density summation:       191
  | Number of centers in basis integrals           :       209
  | Number of centers in integrals                 :        81
  | Number of centers in hamiltonian               :       191
  | Consuming          1 KiB for k_phase.
  | Number of super-cells (origin) [n_cells]                     :        1331
  | Number of super-cells (after PM_index) [n_cells]             :          74
  | Number of super-cells in hamiltonian [n_cells_in_hamiltonian]:          74
  | Size of matrix packed + index [n_hamiltonian_matrix_size] :       62511
  | Size of matrix packed + index (no_symmetry):      123024

------------------------------------------------------------
          Begin self-consistency loop: Initialization.

          Date     :  20221003, Time     :  095906.107
------------------------------------------------------------
  | Estimated reciprocal-space cutoff momentum G_max:         1.90186217 bohr^-1 .
  | Reciprocal lattice points for long-range Hartree potential:      92
  Using simple linear distribution as default method for k-point parallelism.
  * Using 16 tasks for Scalapack Eigenvalue solver.
  Detailed listing of tasks and assigned k-points:
   Task     0 k-point     1 on mpsd-hpc-ibm-056
   Task     1 k-point     1 on mpsd-hpc-ibm-056
   Task     2 k-point     1 on mpsd-hpc-ibm-056
   Task     3 k-point     1 on mpsd-hpc-ibm-056
   Task     4 k-point     1 on mpsd-hpc-ibm-057
   Task     5 k-point     1 on mpsd-hpc-ibm-057
   Task     6 k-point     1 on mpsd-hpc-ibm-057
   Task     7 k-point     1 on mpsd-hpc-ibm-057
   Task     8 k-point     1 on mpsd-hpc-ibm-058
   Task     9 k-point     1 on mpsd-hpc-ibm-058
   Task    10 k-point     1 on mpsd-hpc-ibm-058
   Task    11 k-point     1 on mpsd-hpc-ibm-058
   Task    12 k-point     1 on mpsd-hpc-ibm-059
   Task    13 k-point     1 on mpsd-hpc-ibm-059
   Task    14 k-point     1 on mpsd-hpc-ibm-059
   Task    15 k-point     1 on mpsd-hpc-ibm-059
  K-point:     1 Tasks:    16 split into      4 X      4 BLACS grid
  Calculating block size based on n_basis =           69  max_nprow =            4  max_npcol =            4
  ScaLAPACK block size set to:           16
  Allocating        0.003 MB for ovlp
  Allocating        0.003 MB for ham
  Allocating        0.003 MB for eigenvec
  Required Scalapack workspace - INTEGER:            1  REAL:             1
  Partitioning the integration grid into batches with parallel hashing+maxmin method.
  | Number of batches:      499
  | Maximal batch size:     163
  | Minimal batch size:      52
  | Average batch size:      93.968
  | Standard deviation of batch sizes:      25.482

  Integration load balanced across    16 MPI tasks.
  Work distribution over tasks is as follows:
  Task     0 has       2903 integration points.
  Task     1 has       2929 integration points.
  Task     2 has       2958 integration points.
  Task     3 has       2915 integration points.
  Task     4 has       2931 integration points.
  Task     5 has       2913 integration points.
  Task     6 has       2899 integration points.
  Task     7 has       2964 integration points.
  Task     8 has       2954 integration points.
  Task     9 has       2905 integration points.
  Task    10 has       2947 integration points.
  Task    11 has       2906 integration points.
  Task    12 has       2954 integration points.
  Task    13 has       2907 integration points.
  Task    14 has       2947 integration points.
  Task    15 has       2958 integration points.
  Initializing partition tables, free-atom densities, potentials, etc. across the integration grid (initialize_grid_storage).
  | initialize_grid_storage: Actual outermost partition radius vs. multipole_radius_free
  | (-- VB: in principle, multipole_radius_free should be larger, hence this output)
  | Species        1: Confinement radius =              6.000000000000000 AA, multipole_radius_free =              6.064445521808699 AA.
  | Species        1: outer_partition_radius set to              6.064445521808699 AA .
  | Species        2: Confinement radius =              6.000000000000000 AA, multipole_radius_free =              6.071692442739658 AA.
  | Species        2: outer_partition_radius set to              6.071692442739658 AA .
  | The sparse table of interatomic distances needs        422.78 kbyte instead of       349.45 kbyte of memory.
  | Using the partition_type stratmann_smoother will reduce your memory usage.
  | Net number of integration points:    46890
  | of which are non-zero points    :    37575
  | Numerical average free-atom electrostatic potential    :     -1.29049375 eV
  Renormalizing the initial density to the exact electron count on the 3D integration grid.
  | Initial density: Formal number of electrons (from input files) :      10.0000000000
  | Integrated number of electrons on 3D grid     :      10.0000037549
  | Charge integration error                      :       0.0000037549
  | Normalization factor for density and gradient :       0.9999996245
  Renormalizing the free-atom superposition density to the exact electron count on the 3D integration grid.
  | Formal number of electrons (from input files) :      10.0000000000
  | Integrated number of electrons on 3D grid     :      10.0000037549
  | Charge integration error                      :       0.0000037549
  | Normalization factor for density and gradient :       0.9999996245
  Obtaining max. number of non-zero basis functions in each batch (get_n_compute_maxes).
  | Maximal number of non-zero basis functions:      422 in task     0
  | Maximal number of non-zero basis functions:      370 in task     1
  | Maximal number of non-zero basis functions:      422 in task     2
  | Maximal number of non-zero basis functions:      440 in task     3
  | Maximal number of non-zero basis functions:      398 in task     4
  | Maximal number of non-zero basis functions:      390 in task     5
  | Maximal number of non-zero basis functions:      349 in task     6
  | Maximal number of non-zero basis functions:      409 in task     7
  | Maximal number of non-zero basis functions:      422 in task     8
  | Maximal number of non-zero basis functions:      378 in task     9
  | Maximal number of non-zero basis functions:      358 in task    10
  | Maximal number of non-zero basis functions:      382 in task    11
  | Maximal number of non-zero basis functions:      397 in task    12
  | Maximal number of non-zero basis functions:      332 in task    13
  | Maximal number of non-zero basis functions:      387 in task    14
  | Maximal number of non-zero basis functions:      387 in task    15
  Integrating Hamiltonian matrix: batch-based integration.
  Time summed over all CPUs for integration: real work        1.081 s, elapsed        1.169 s
  Integrating overlap matrix.
  Time summed over all CPUs for integration: real work        0.609 s, elapsed        0.655 s
  Deallocating overlap matrix.

  Updating Kohn-Sham eigenvalues and eigenvectors using ELSI and the ELPA eigensolver.
  Singularity check in k-point 1 (analysis for other k-points may follow below):
  Overlap matrix is not singular
  | Lowest and highest eigenvalues :  0.2030E-03,  0.6941E+01
  Finished singularity check of overlap matrix
  | Time :     0.003 s
  Starting ELPA eigensolver
  Finished Cholesky decomposition
  | Time :     0.002 s
  Finished transformation to standard eigenproblem
  | Time :     0.001 s
  Finished solving standard eigenproblem
  | Time :     0.003 s
  Finished back-transformation of eigenvectors
  | Time :     0.001 s

  Obtaining occupation numbers and electronic chemical potential using ELSI.
  | Note that, for insulating systems, the printed 'chemical potential' value is not uniquely defined.
  | It can be anywhere in the energy gap, as long as it correctly separates occupied and unoccupied states.
  | In systems with a gap, the physically relevant chemical potential is the VBM or HOMO.

  | Chemical potential (Fermi level):    -6.50520722 eV
  Writing Kohn-Sham eigenvalues.

  State    Occupation    Eigenvalue [Ha]    Eigenvalue [eV]
      1       2.00000         -19.009184         -517.26622
      2       2.00000          -1.100871          -29.95622
      3       2.00000          -0.642216          -17.47559
      4       2.00000          -0.501639          -13.65029
      5       2.00000          -0.439471          -11.95861
      6       0.00000          -0.115335           -3.13842
      7       0.00000           0.049188            1.33846
      8       0.00000           0.094455            2.57024
      9       0.00000           0.186968            5.08765
     10       0.00000           0.200264            5.44945
     11       0.00000           0.207181            5.63768
     12       0.00000           0.337957            9.19628
     13       0.00000           0.418889           11.39855
     14       0.00000           0.441547           12.01510
     15       0.00000           0.446573           12.15186
     16       0.00000           0.530473           14.43492
     17       0.00000           0.563037           15.32102
     18       0.00000           0.653416           17.78035
     19       0.00000           0.884007           24.05505
     20       0.00000           0.941977           25.63251
     21       0.00000           1.055983           28.73476
     22       0.00000           1.084843           29.52007
     23       0.00000           1.091370           29.69769
     24       0.00000           1.164166           31.67856
     25       0.00000           1.358874           36.97684
     26       0.00000           1.415347           38.51355
     27       0.00000           1.424777           38.77016
     28       0.00000           1.740433           47.35959
     29       0.00000           2.141793           58.28115
     30       0.00000           2.161730           58.82367
     31       0.00000           2.219475           60.39500
     32       0.00000           2.242601           61.02429
     33       0.00000           2.350088           63.94914
     34       0.00000           2.490624           67.77332
     35       0.00000           2.670163           72.65883
     36       0.00000           2.694495           73.32093
     37       0.00000           2.793179           76.00626
     38       0.00000           2.796444           76.09510
     39       0.00000           2.949601           80.26274
     40       0.00000           3.224110           87.73250
     41       0.00000           3.291370           89.56273
     42       0.00000           3.306858           89.98418
     43       0.00000           3.451481           93.91958
     44       0.00000           3.569090           97.11988
     45       0.00000           3.681352          100.17467
     46       0.00000           3.716692          101.13635
     47       0.00000           3.768859          102.55586
     48       0.00000           4.017992          109.33512
     49       0.00000           4.038957          109.90562
     50       0.00000           4.263833          116.02480
     51       0.00000           4.277816          116.40531
     52       0.00000           5.086483          138.41024
     53       0.00000           5.152556          140.20817
     54       0.00000           5.178861          140.92397
     55       0.00000           5.406523          147.11899
     56       0.00000           5.516082          150.10023
     57       0.00000           5.570256          151.57439
     58       0.00000           5.678486          154.51948
     59       0.00000           5.904116          160.65917
     60       0.00000           6.073883          165.27876
     61       0.00000           6.397312          174.07971
     62       0.00000           6.474743          176.18672
     63       0.00000           7.115280          193.61662
     64       0.00000           7.190195          195.65516
     65       0.00000           7.290195          198.37630
     66       0.00000           7.850413          213.62061
     67       0.00000           7.888536          214.65799
     68       0.00000           8.597834          233.95895
     69       0.00000           8.927742          242.93622

  Highest occupied state (VBM) at    -11.95860755 eV (relative to internal zero)
  | Occupation number:      2.00000000
  | K-point:       1 at    0.000000    0.000000    0.000000 (in units of recip. lattice)

  Lowest unoccupied state (CBM) at    -3.13842339 eV (relative to internal zero)
  | Occupation number:      0.00000000
  | K-point:       1 at    0.000000    0.000000    0.000000 (in units of recip. lattice)

  ESTIMATED overall HOMO-LUMO gap:      8.82018416 eV between HOMO at k-point 1 and LUMO at k-point 1
  The gap value is above 0.2 eV. Unless you are using a very sparse k-point grid,
  this system is most likely an insulator or a semiconductor.
  Calculating total energy contributions from superposition of free atom densities.

  Total energy components:
  | Sum of eigenvalues            :         -43.38676141 Ha       -1180.61384695 eV
  | XC energy correction          :          -9.01446517 Ha        -245.29607768 eV
  | XC potential correction       :          11.59049368 Ha         315.39338018 eV
  | Free-atom electrostatic energy:         -35.64605433 Ha        -969.97849030 eV
  | Hartree energy correction     :           0.00000000 Ha           0.00000000 eV
  | Entropy correction            :           0.00000000 Ha           0.00000000 eV
  | ---------------------------
  | Total energy                  :         -76.45678722 Ha       -2080.49503475 eV
  | Total energy, T -> 0          :         -76.45678722 Ha       -2080.49503475 eV  <-- do not rely on this value for anything but (periodic) metals
  | Electronic free energy        :         -76.45678722 Ha       -2080.49503475 eV

  Derived energy quantities:
  | Kinetic energy                :          75.52536939 Ha        2055.14986591 eV
  | Electrostatic energy          :        -142.96769144 Ha       -3890.34882298 eV
  | Energy correction for multipole
  | error in Hartree potential    :           0.00000000 Ha           0.00000000 eV
  | Sum of eigenvalues per atom                           :        -393.53794898 eV
  | Total energy (T->0) per atom                          :        -693.49834492 eV  <-- do not rely on this value for anything but (periodic) metals
  | Electronic free energy per atom                       :        -693.49834492 eV
  Initialize hartree_potential_storage
  Max. number of atoms included in rho_multipole:            3

  End scf initialization - timings             :  max(cpu_time)    wall_clock(cpu1)
  | Time for scf. initialization                :        0.288 s           0.287 s
  | Boundary condition initialization           :        0.048 s           0.047 s
  | Integration                                 :        0.120 s           0.119 s
  | Solution of K.-S. eqns.                     :        0.016 s           0.014 s
  | Grid partitioning                           :        0.032 s           0.030 s
  | Preloading free-atom quantities on grid     :        0.084 s           0.079 s
  | Free-atom superposition energy              :        0.036 s           0.034 s
  | Total energy evaluation                     :        0.004 s           0.002 s

  Partial memory accounting:
  | Current value for overall tracked memory usage:
  |   Minimum:        0.722 MB (on task  5)
  |   Maximum:        0.726 MB (on task  0)
  |   Average:        0.723 MB
  | Peak value for overall tracked memory usage:
  |   Minimum:        3.286 MB (on task 13 after allocating wave)
  |   Maximum:        4.329 MB (on task  3 after allocating wave)
  |   Average:        3.832 MB
  | Largest tracked array allocation so far:
  |   Minimum:        0.841 MB (hamiltonian_shell on task 13)
  |   Maximum:        1.477 MB (hamiltonian_shell on task  3)
  |   Average:        1.168 MB
  Note:  These values currently only include a subset of arrays which are explicitly tracked.
  The "true" memory usage will be greater.
------------------------------------------------------------
  Evaluating new KS density using the density matrix
  Evaluating density matrix
  Finished density matrix calculation
  | Time :     0.001 s
  Time summed over all CPUs for getting density from density matrix: real work        2.082 s, elapsed        2.355 s
  Integration grid: deviation in total charge (<rho> - N_e) =  -1.776357E-15

  Time for density update prior                :  max(cpu_time)    wall_clock(cpu1)
  | self-consistency iterative process          :        0.152 s           0.151 s

------------------------------------------------------------
          Begin self-consistency iteration #    1

  Date     :  20221003, Time     :  095906.547
------------------------------------------------------------
  Pulay mixing of updated and previous charge densities.
  Renormalizing the density to the exact electron count on the 3D integration grid.
  | Formal number of electrons (from input files) :      10.0000000000
  | Integrated number of electrons on 3D grid     :       9.9996504346
  | Charge integration error                      :      -0.0003495654
  | Normalization factor for density and gradient :       1.0000349578

  Evaluating partitioned Hartree potential by multipole expansion.
  | Original multipole sum: apparent total charge =   0.265963E-14
  | Sum of charges compensated after spline to logarithmic grids =   0.906441E-07
  | Analytical far-field extrapolation by fixed multipoles:
  | Hartree multipole sum: apparent total charge =   0.271344E-14
  Summing up the Hartree potential.
  Time summed over all CPUs for potential: real work        2.461 s, elapsed        2.928 s
  | RMS charge density error from multipole expansion :   0.116706E-03
  | Average real-space part of the electrostatic potential :      0.00978602 eV

  Integrating Hamiltonian matrix: batch-based integration.
  Time summed over all CPUs for integration: real work        1.068 s, elapsed        1.158 s

  Updating Kohn-Sham eigenvalues and eigenvectors using ELSI and the ELPA eigensolver.
  Starting ELPA eigensolver
  Finished transformation to standard eigenproblem
  | Time :     0.001 s
  Finished solving standard eigenproblem
  | Time :     0.004 s
  Finished back-transformation of eigenvectors
  | Time :     0.001 s

  Obtaining occupation numbers and electronic chemical potential using ELSI.
  | Note that, for insulating systems, the printed 'chemical potential' value is not uniquely defined.
  | It can be anywhere in the energy gap, as long as it correctly separates occupied and unoccupied states.
  | In systems with a gap, the physically relevant chemical potential is the VBM or HOMO.

  | Chemical potential (Fermi level):    -6.02222991 eV
  Writing Kohn-Sham eigenvalues.

  State    Occupation    Eigenvalue [Ha]    Eigenvalue [eV]
      1       2.00000         -18.978433         -516.42944
      2       2.00000          -1.086586          -29.56750
      3       2.00000          -0.630081          -17.14537
      4       2.00000          -0.487104          -13.25477
      5       2.00000          -0.424276          -11.54513
      6       0.00000          -0.113837           -3.09766
      7       0.00000           0.052745            1.43526
      8       0.00000           0.097456            2.65191
      9       0.00000           0.190176            5.17495
     10       0.00000           0.202902            5.52125
     11       0.00000           0.209030            5.68800
     12       0.00000           0.340226            9.25802
     13       0.00000           0.421370           11.46607
     14       0.00000           0.444373           12.09200
     15       0.00000           0.449511           12.23180
     16       0.00000           0.534314           14.53943
     17       0.00000           0.565870           15.39811
     18       0.00000           0.657064           17.87963
     19       0.00000           0.885984           24.10886
     20       0.00000           0.944861           25.71096
     21       0.00000           1.060149           28.84811
     22       0.00000           1.089028           29.63396
     23       0.00000           1.095775           29.81754
     24       0.00000           1.171438           31.87644
     25       0.00000           1.364245           37.12300
     26       0.00000           1.424849           38.77211
     27       0.00000           1.435711           39.06768
     28       0.00000           1.747396           47.54907
     29       0.00000           2.147264           58.43004
     30       0.00000           2.167049           58.96840
     31       0.00000           2.224826           60.54061
     32       0.00000           2.250413           61.23686
     33       0.00000           2.355185           64.08783
     34       0.00000           2.500027           68.02920
     35       0.00000           2.674568           72.77870
     36       0.00000           2.701107           73.50087
     37       0.00000           2.796735           76.10302
     38       0.00000           2.803017           76.27398
     39       0.00000           2.960412           80.55690
     40       0.00000           3.234311           88.01007
     41       0.00000           3.297481           89.72903
     42       0.00000           3.315524           90.21999
     43       0.00000           3.458514           94.11095
     44       0.00000           3.574024           97.25413
     45       0.00000           3.690478          100.42301
     46       0.00000           3.722973          101.30724
     47       0.00000           3.777169          102.78201
     48       0.00000           4.023608          109.48795
     49       0.00000           4.046794          110.11888
     50       0.00000           4.273966          116.30052
     51       0.00000           4.286906          116.65264
     52       0.00000           5.095457          138.65444
     53       0.00000           5.160317          140.41936
     54       0.00000           5.185813          141.11314
     55       0.00000           5.416513          147.39082
     56       0.00000           5.523309          150.29689
     57       0.00000           5.578580          151.80089
     58       0.00000           5.687103          154.75396
     59       0.00000           5.913424          160.91245
     60       0.00000           6.083917          165.55179
     61       0.00000           6.407530          174.35776
     62       0.00000           6.482291          176.39210
     63       0.00000           7.126180          193.91323
     64       0.00000           7.199627          195.91183
     65       0.00000           7.300994          198.67016
     66       0.00000           7.860543          213.89625
     67       0.00000           7.900443          214.98198
     68       0.00000           8.608782          234.25687
     69       0.00000           8.939141          243.24641

  Highest occupied state (VBM) at    -11.54512547 eV (relative to internal zero)
  | Occupation number:      2.00000000
  | K-point:       1 at    0.000000    0.000000    0.000000 (in units of recip. lattice)

  Lowest unoccupied state (CBM) at    -3.09766123 eV (relative to internal zero)
  | Occupation number:      0.00000000
  | K-point:       1 at    0.000000    0.000000    0.000000 (in units of recip. lattice)

  ESTIMATED overall HOMO-LUMO gap:      8.44746424 eV between HOMO at k-point 1 and LUMO at k-point 1
  The gap value is above 0.2 eV. Unless you are using a very sparse k-point grid,
  this system is most likely an insulator or a semiconductor.

  Total energy components:
  | Sum of eigenvalues            :         -43.21295772 Ha       -1175.88440783 eV
  | XC energy correction          :          -9.03471752 Ha        -245.84717224 eV
  | XC potential correction       :          11.61681418 Ha         316.10959740 eV
  | Free-atom electrostatic energy:         -35.64605433 Ha        -969.97849030 eV
  | Hartree energy correction     :          -0.16544360 Ha          -4.50194934 eV
  | Entropy correction            :           0.00000000 Ha           0.00000000 eV
  | ---------------------------
  | Total energy                  :         -76.44235898 Ha       -2080.10242231 eV
  | Total energy, T -> 0          :         -76.44235898 Ha       -2080.10242231 eV  <-- do not rely on this value for anything but (periodic) metals
  | Electronic free energy        :         -76.44235898 Ha       -2080.10242231 eV

  Derived energy quantities:
  | Kinetic energy                :          75.65537757 Ha        2058.68756852 eV
  | Electrostatic energy          :        -143.06301903 Ha       -3892.94281859 eV
  | Energy correction for multipole
  | error in Hartree potential    :          -0.00013073 Ha          -0.00355740 eV
  | Sum of eigenvalues per atom                           :        -391.96146928 eV
  | Total energy (T->0) per atom                          :        -693.36747410 eV  <-- do not rely on this value for anything but (periodic) metals
  | Electronic free energy per atom                       :        -693.36747410 eV
  Evaluating new KS density using the density matrix
  Evaluating density matrix
  Finished density matrix calculation
  | Time :     0.000 s
  Time summed over all CPUs for getting density from density matrix: real work        2.041 s, elapsed        2.322 s
  Integration grid: deviation in total charge (<rho> - N_e) =   1.065814E-14

  Self-consistency convergence accuracy:
  | Change of charge density      :  0.3255E+00
  | Change of unmixed KS density  :  0.9107E+01
  | Change of sum of eigenvalues  :  0.4729E+01 eV
  | Change of total energy        :  0.3926E+00 eV


------------------------------------------------------------
  End self-consistency iteration #     1       :  max(cpu_time)    wall_clock(cpu1)
  | Time for this iteration                     :        0.512 s           0.508 s
  | Charge density update                       :        0.148 s           0.148 s
  | Density mixing & preconditioning            :        0.076 s           0.075 s
  | Hartree multipole update                    :        0.004 s           0.003 s
  | Hartree multipole summation                 :        0.196 s           0.194 s
  | Integration                                 :        0.076 s           0.075 s
  | Solution of K.-S. eqns.                     :        0.008 s           0.007 s
  | Total energy evaluation                     :        0.008 s           0.002 s

  Partial memory accounting:
  | Current value for overall tracked memory usage:
  |   Minimum:        0.722 MB (on task  5)
  |   Maximum:        0.726 MB (on task  0)
  |   Average:        0.723 MB
  | Peak value for overall tracked memory usage:
  |   Minimum:        4.040 MB (on task 13 after allocating gradient_basis_wave)
  |   Maximum:        5.484 MB (on task  3 after allocating gradient_basis_wave)
  |   Average:        4.802 MB
  | Largest tracked array allocation so far:
  |   Minimum:        1.239 MB (gradient_basis_wave on task 13)
  |   Maximum:        1.642 MB (gradient_basis_wave on task  3)
  |   Average:        1.456 MB
  Note:  These values currently only include a subset of arrays which are explicitly tracked.
  The "true" memory usage will be greater.
------------------------------------------------------------

------------------------------------------------------------
          Begin self-consistency iteration #    2

  Date     :  20221003, Time     :  095907.058
------------------------------------------------------------
  Pulay mixing of updated and previous charge densities.
  Renormalizing the density to the exact electron count on the 3D integration grid.
  | Formal number of electrons (from input files) :      10.0000000000
  | Integrated number of electrons on 3D grid     :       9.9970514965
  | Charge integration error                      :      -0.0029485035
  | Normalization factor for density and gradient :       1.0002949373

  Evaluating partitioned Hartree potential by multipole expansion.
  | Original multipole sum: apparent total charge =   0.135288E-15
  | Sum of charges compensated after spline to logarithmic grids =   0.805977E-06
  | Analytical far-field extrapolation by fixed multipoles:
  | Hartree multipole sum: apparent total charge =   0.418162E-15
  Summing up the Hartree potential.
  Time summed over all CPUs for potential: real work        2.816 s, elapsed        3.110 s
  | RMS charge density error from multipole expansion :   0.105976E-02
  | Average real-space part of the electrostatic potential :      0.08794514 eV

  Integrating Hamiltonian matrix: batch-based integration.
  Time summed over all CPUs for integration: real work        1.106 s, elapsed        1.376 s

  Updating Kohn-Sham eigenvalues and eigenvectors using ELSI and the ELPA eigensolver.
  Starting ELPA eigensolver
  Finished transformation to standard eigenproblem
  | Time :     0.001 s
  Finished solving standard eigenproblem
  | Time :     0.004 s
  Finished back-transformation of eigenvectors
  | Time :     0.000 s

  Obtaining occupation numbers and electronic chemical potential using ELSI.
  | Note that, for insulating systems, the printed 'chemical potential' value is not uniquely defined.
  | It can be anywhere in the energy gap, as long as it correctly separates occupied and unoccupied states.
  | In systems with a gap, the physically relevant chemical potential is the VBM or HOMO.

  | Chemical potential (Fermi level):    -8.19656105 eV
  Highest occupied state (VBM) at     -8.44009569 eV (relative to internal zero)
  | Occupation number:      2.00000000
  | K-point:       1 at    0.000000    0.000000    0.000000 (in units of recip. lattice)

  Lowest unoccupied state (CBM) at    -2.76506800 eV (relative to internal zero)
  | Occupation number:      0.00000000
  | K-point:       1 at    0.000000    0.000000    0.000000 (in units of recip. lattice)

  ESTIMATED overall HOMO-LUMO gap:      5.67502769 eV between HOMO at k-point 1 and LUMO at k-point 1
  The gap value is above 0.2 eV. Unless you are using a very sparse k-point grid,
  this system is most likely an insulator or a semiconductor.

  Checking to see if s.c.f. parameters should be adjusted.
  The system likely has a gap. Increased the default Pulay mixing parameter (charge_mix_param). Value:   0.200000 .
  Kept the default occupation width. Value:   0.010000 eV.

  Total energy components:
  | Sum of eigenvalues            :         -41.89993430 Ha       -1140.15522279 eV
  | XC energy correction          :          -9.19625791 Ha        -250.24290991 eV
  | XC potential correction       :          11.82674633 Ha         321.82214172 eV
  | Free-atom electrostatic energy:         -35.64605433 Ha        -969.97849030 eV
  | Hartree energy correction     :          -1.46643755 Ha         -39.90379596 eV
  | Entropy correction            :          -0.00000000 Ha          -0.00000000 eV
  | ---------------------------
  | Total energy                  :         -76.38193776 Ha       -2078.45827724 eV
  | Total energy, T -> 0          :         -76.38193776 Ha       -2078.45827724 eV  <-- do not rely on this value for anything but (periodic) metals
  | Electronic free energy        :         -76.38193776 Ha       -2078.45827724 eV

  Derived energy quantities:
  | Kinetic energy                :          76.55949268 Ha        2083.28979241 eV
  | Electrostatic energy          :        -143.74517253 Ha       -3911.50515974 eV
  | Energy correction for multipole
  | error in Hartree potential    :          -0.00115301 Ha          -0.03137507 eV
  | Sum of eigenvalues per atom                           :        -380.05174093 eV
  | Total energy (T->0) per atom                          :        -692.81942575 eV  <-- do not rely on this value for anything but (periodic) metals
  | Electronic free energy per atom                       :        -692.81942575 eV
  Evaluating new KS density using the density matrix
  Evaluating density matrix
  Finished density matrix calculation
  | Time :     0.000 s
  Time summed over all CPUs for getting density from density matrix: real work        1.943 s, elapsed        2.182 s
  Integration grid: deviation in total charge (<rho> - N_e) =   1.776357E-15

  Self-consistency convergence accuracy:
  | Change of charge density      :  0.2937E+00
  | Change of unmixed KS density  :  0.2369E-01
  | Change of sum of eigenvalues  :  0.3573E+02 eV
  | Change of total energy        :  0.1644E+01 eV


------------------------------------------------------------
  End self-consistency iteration #     2       :  max(cpu_time)    wall_clock(cpu1)
  | Time for this iteration                     :        0.528 s           0.525 s
  | Charge density update                       :        0.140 s           0.140 s
  | Density mixing & preconditioning            :        0.080 s           0.078 s
  | Hartree multipole update                    :        0.004 s           0.003 s
  | Hartree multipole summation                 :        0.208 s           0.207 s
  | Integration                                 :        0.092 s           0.089 s
  | Solution of K.-S. eqns.                     :        0.008 s           0.006 s
  | Total energy evaluation                     :        0.004 s           0.001 s

  Partial memory accounting:
  | Current value for overall tracked memory usage:
  |   Minimum:        0.723 MB (on task  5)
  |   Maximum:        0.727 MB (on task  0)
  |   Average:        0.723 MB
  | Peak value for overall tracked memory usage:
  |   Minimum:        4.041 MB (on task 13 after allocating gradient_basis_wave)
  |   Maximum:        5.484 MB (on task  3 after allocating gradient_basis_wave)
  |   Average:        4.802 MB
  | Largest tracked array allocation so far:
  |   Minimum:        1.239 MB (gradient_basis_wave on task 13)
  |   Maximum:        1.642 MB (gradient_basis_wave on task  3)
  |   Average:        1.456 MB
  Note:  These values currently only include a subset of arrays which are explicitly tracked.
  The "true" memory usage will be greater.
------------------------------------------------------------

------------------------------------------------------------
          Begin self-consistency iteration #    3

  Date     :  20221003, Time     :  095907.587
------------------------------------------------------------
  Pulay mixing of updated and previous charge densities.
  Renormalizing the density to the exact electron count on the 3D integration grid.
  | Formal number of electrons (from input files) :      10.0000000000
  | Integrated number of electrons on 3D grid     :       9.9983465000
  | Charge integration error                      :      -0.0016535000
  | Normalization factor for density and gradient :       1.0001653773

  Evaluating partitioned Hartree potential by multipole expansion.
  | Original multipole sum: apparent total charge =   0.479656E-14
  | Sum of charges compensated after spline to logarithmic grids =   0.524432E-06
  | Analytical far-field extrapolation by fixed multipoles:
  | Hartree multipole sum: apparent total charge =   0.467357E-14
  Summing up the Hartree potential.
  Time summed over all CPUs for potential: real work        2.843 s, elapsed        3.288 s
  | RMS charge density error from multipole expansion :   0.150812E-02
  | Average real-space part of the electrostatic potential :      0.09424140 eV

  Integrating Hamiltonian matrix: batch-based integration.
  Time summed over all CPUs for integration: real work        1.065 s, elapsed        1.157 s

  Updating Kohn-Sham eigenvalues and eigenvectors using ELSI and the ELPA eigensolver.
  Starting ELPA eigensolver
  Finished transformation to standard eigenproblem
  | Time :     0.001 s
  Finished solving standard eigenproblem
  | Time :     0.004 s
  Finished back-transformation of eigenvectors
  | Time :     0.000 s

  Obtaining occupation numbers and electronic chemical potential using ELSI.
  | Note that, for insulating systems, the printed 'chemical potential' value is not uniquely defined.
  | It can be anywhere in the energy gap, as long as it correctly separates occupied and unoccupied states.
  | In systems with a gap, the physically relevant chemical potential is the VBM or HOMO.

  | Chemical potential (Fermi level):    -3.28303267 eV
  Highest occupied state (VBM) at     -8.99402684 eV (relative to internal zero)
  | Occupation number:      2.00000000
  | K-point:       1 at    0.000000    0.000000    0.000000 (in units of recip. lattice)

  Lowest unoccupied state (CBM) at    -2.79519532 eV (relative to internal zero)
  | Occupation number:      0.00000000
  | K-point:       1 at    0.000000    0.000000    0.000000 (in units of recip. lattice)

  ESTIMATED overall HOMO-LUMO gap:      6.19883153 eV between HOMO at k-point 1 and LUMO at k-point 1
  The gap value is above 0.2 eV. Unless you are using a very sparse k-point grid,
  this system is most likely an insulator or a semiconductor.

  Total energy components:
  | Sum of eigenvalues            :         -42.21102784 Ha       -1148.62050878 eV
  | XC energy correction          :          -9.15763927 Ha        -249.19204319 eV
  | XC potential correction       :          11.77712353 Ha         320.47183681 eV
  | Free-atom electrostatic energy:         -35.64605433 Ha        -969.97849030 eV
  | Hartree energy correction     :          -1.14844826 Ha         -31.25086719 eV
  | Entropy correction            :           0.00000000 Ha           0.00000000 eV
  | ---------------------------
  | Total energy                  :         -76.38604617 Ha       -2078.57007266 eV
  | Total energy, T -> 0          :         -76.38604617 Ha       -2078.57007266 eV  <-- do not rely on this value for anything but (periodic) metals
  | Electronic free energy        :         -76.38604617 Ha       -2078.57007266 eV

  Derived energy quantities:
  | Kinetic energy                :          76.09674259 Ha        2070.69772179 eV
  | Electrostatic energy          :        -143.32514949 Ha       -3900.07575126 eV
  | Energy correction for multipole
  | error in Hartree potential    :          -0.00078753 Ha          -0.02142991 eV
  | Sum of eigenvalues per atom                           :        -382.87350293 eV
  | Total energy (T->0) per atom                          :        -692.85669089 eV  <-- do not rely on this value for anything but (periodic) metals
  | Electronic free energy per atom                       :        -692.85669089 eV
  Evaluating new KS density using the density matrix
  Evaluating density matrix
  Finished density matrix calculation
  | Time :     0.000 s
  Time summed over all CPUs for getting density from density matrix: real work        2.056 s, elapsed        2.344 s
  Integration grid: deviation in total charge (<rho> - N_e) =   5.329071E-15

  Self-consistency convergence accuracy:
  | Change of charge density      :  0.1205E+00
  | Change of unmixed KS density  :  0.1895E+00
  | Change of sum of eigenvalues  : -0.8465E+01 eV
  | Change of total energy        : -0.1118E+00 eV


------------------------------------------------------------
  End self-consistency iteration #     3       :  max(cpu_time)    wall_clock(cpu1)
  | Time for this iteration                     :        0.536 s           0.533 s
  | Charge density update                       :        0.152 s           0.150 s
  | Density mixing & preconditioning            :        0.080 s           0.079 s
  | Hartree multipole update                    :        0.004 s           0.003 s
  | Hartree multipole summation                 :        0.220 s           0.218 s
  | Integration                                 :        0.076 s           0.075 s
  | Solution of K.-S. eqns.                     :        0.008 s           0.006 s
  | Total energy evaluation                     :        0.004 s           0.001 s

  Partial memory accounting:
  | Current value for overall tracked memory usage:
  |   Minimum:        0.723 MB (on task  5)
  |   Maximum:        0.727 MB (on task  0)
  |   Average:        0.723 MB
  | Peak value for overall tracked memory usage:
  |   Minimum:        4.041 MB (on task 13 after allocating gradient_basis_wave)
  |   Maximum:        5.485 MB (on task  3 after allocating gradient_basis_wave)
  |   Average:        4.803 MB
  | Largest tracked array allocation so far:
  |   Minimum:        1.239 MB (gradient_basis_wave on task 13)
  |   Maximum:        1.642 MB (gradient_basis_wave on task  3)
  |   Average:        1.456 MB
  Note:  These values currently only include a subset of arrays which are explicitly tracked.
  The "true" memory usage will be greater.
------------------------------------------------------------

------------------------------------------------------------
          Begin self-consistency iteration #    4

  Date     :  20221003, Time     :  095908.123
------------------------------------------------------------
  Pulay mixing of updated and previous charge densities.
  Renormalizing the density to the exact electron count on the 3D integration grid.
  | Formal number of electrons (from input files) :      10.0000000000
  | Integrated number of electrons on 3D grid     :       9.9964254369
  | Charge integration error                      :      -0.0035745631
  | Normalization factor for density and gradient :       1.0003575841

  Evaluating partitioned Hartree potential by multipole expansion.
  | Original multipole sum: apparent total charge =  -0.172184E-14
  | Sum of charges compensated after spline to logarithmic grids =   0.703585E-06
  | Analytical far-field extrapolation by fixed multipoles:
  | Hartree multipole sum: apparent total charge =  -0.135288E-14
  Summing up the Hartree potential.
  Time summed over all CPUs for potential: real work        2.917 s, elapsed        3.227 s
  | RMS charge density error from multipole expansion :   0.252197E-02
  | Average real-space part of the electrostatic potential :      0.14741053 eV

  Integrating Hamiltonian matrix: batch-based integration.
  Time summed over all CPUs for integration: real work        1.047 s, elapsed        1.134 s

  Updating Kohn-Sham eigenvalues and eigenvectors using ELSI and the ELPA eigensolver.
  Starting ELPA eigensolver
  Finished transformation to standard eigenproblem
  | Time :     0.000 s
  Finished solving standard eigenproblem
  | Time :     0.003 s
  Finished back-transformation of eigenvectors
  | Time :     0.001 s

  Obtaining occupation numbers and electronic chemical potential using ELSI.
  | Note that, for insulating systems, the printed 'chemical potential' value is not uniquely defined.
  | It can be anywhere in the energy gap, as long as it correctly separates occupied and unoccupied states.
  | In systems with a gap, the physically relevant chemical potential is the VBM or HOMO.

  | Chemical potential (Fermi level):    -5.00974280 eV
  Highest occupied state (VBM) at     -7.76369188 eV (relative to internal zero)
  | Occupation number:      2.00000000
  | K-point:       1 at    0.000000    0.000000    0.000000 (in units of recip. lattice)

  Lowest unoccupied state (CBM) at    -2.59465761 eV (relative to internal zero)
  | Occupation number:      0.00000000
  | K-point:       1 at    0.000000    0.000000    0.000000 (in units of recip. lattice)

  ESTIMATED overall HOMO-LUMO gap:      5.16903427 eV between HOMO at k-point 1 and LUMO at k-point 1
  The gap value is above 0.2 eV. Unless you are using a very sparse k-point grid,
  this system is most likely an insulator or a semiconductor.

  Total energy components:
  | Sum of eigenvalues            :         -41.75643067 Ha       -1136.25029035 eV
  | XC energy correction          :          -9.22180961 Ha        -250.93820720 eV
  | XC potential correction       :          11.86137428 Ha         322.76441620 eV
  | Free-atom electrostatic energy:         -35.64605433 Ha        -969.97849030 eV
  | Hartree energy correction     :          -1.61356980 Ha         -43.90746814 eV
  | Entropy correction            :           0.00000000 Ha           0.00000000 eV
  | ---------------------------
  | Total energy                  :         -76.37649013 Ha       -2078.31003979 eV
  | Total energy, T -> 0          :         -76.37649013 Ha       -2078.31003979 eV  <-- do not rely on this value for anything but (periodic) metals
  | Electronic free energy        :         -76.37649013 Ha       -2078.31003979 eV

  Derived energy quantities:
  | Kinetic energy                :          76.13984061 Ha        2071.87047850 eV
  | Electrostatic energy          :        -143.29452113 Ha       -3899.24231109 eV
  | Energy correction for multipole
  | error in Hartree potential    :          -0.00107001 Ha          -0.02911648 eV
  | Sum of eigenvalues per atom                           :        -378.75009678 eV
  | Total energy (T->0) per atom                          :        -692.77001326 eV  <-- do not rely on this value for anything but (periodic) metals
  | Electronic free energy per atom                       :        -692.77001326 eV
  Evaluating new KS density using the density matrix
  Evaluating density matrix
  Finished density matrix calculation
  | Time :     0.000 s
  Time summed over all CPUs for getting density from density matrix: real work        2.137 s, elapsed        2.475 s
  Integration grid: deviation in total charge (<rho> - N_e) =   5.329071E-15

  Self-consistency convergence accuracy:
  | Change of charge density      :  0.1091E+00
  | Change of unmixed KS density  :  0.5933E-01
  | Change of sum of eigenvalues  :  0.1237E+02 eV
  | Change of total energy        :  0.2600E+00 eV


------------------------------------------------------------
  End self-consistency iteration #     4       :  max(cpu_time)    wall_clock(cpu1)
  | Time for this iteration                     :        0.536 s           0.535 s
  | Charge density update                       :        0.160 s           0.157 s
  | Density mixing & preconditioning            :        0.080 s           0.078 s
  | Hartree multipole update                    :        0.004 s           0.003 s
[...]
  0.000000000000000E+000  0.000000000000000E+000  0.000000000000000E+000
 FOU -3.906452957564331E-005 -1.352033709449726E-002 -1.305019139972794E-002
  4.257275391758620E-005 -1.160781916091253E-003 -1.712758501162486E-003
 -2.955479242216851E-006 -3.118584659086279E-004 -4.266402490079261E-003
 FOU  0.000000000000000E+000  0.000000000000000E+000  0.000000000000000E+000
  0.000000000000000E+000  0.000000000000000E+000  0.000000000000000E+000
  0.000000000000000E+000  0.000000000000000E+000  0.000000000000000E+000
 FOU  0.000000000000000E+000  0.000000000000000E+000  0.000000000000000E+000
  0.000000000000000E+000  0.000000000000000E+000  0.000000000000000E+000
  0.000000000000000E+000  0.000000000000000E+000  0.000000000000000E+000
  0.000000000000000E+000  0.000000000000000E+000  0.000000000000000E+000
  1.380994934518247E-005 -3.291823746585938E-005  1.814410652879400E-004
  0.000000000000000E+000  0.000000000000000E+000  0.000000000000000E+000
  0.000000000000000E+000  0.000000000000000E+000  0.000000000000000E+000
  0.000000000000000E+000  0.000000000000000E+000  0.000000000000000E+000
 -1.824493352893344E-004  1.929932620644802E-004  1.837012437825378E-004
  0.000000000000000E+000  0.000000000000000E+000  0.000000000000000E+000
  0.000000000000000E+000  0.000000000000000E+000  0.000000000000000E+000
  End CPSCF iteration #     5                  :  max(cpu_time)    wall_clock(cpu1)
  | Time for this iteration                     :        1.364 s           1.363 s
  | first_order_DM                              :        0.004 s           0.002 s
  | first_order_density                         :        0.148 s           0.146 s
  | first_order_potential                       :        0.248 s           0.245 s
  | first_order_H                               :        0.964 s           0.962 s
  | Solution of Sternheimer eqns.               :        0.004 s           0.003 s
------------------------------------------------------------

--------------------- CPSCF ---------------------------------------
          Begin CP-self-consistency iteration #    6

  Date     :  20221003, Time     :  095940.649
------------------------------------------------------------

  CPSCF convergence accuracy:
  | Change of first_order_density_matrix     :  0.8993E-03
  Integrating first_order_rho: batch-based integration.
  Time summed over all CPUs for integration: real work        2.048 s, elapsed        2.583 s

  Evaluating partitioned Hartree potential by multipole expansion.
  | Original multipole sum: apparent total charge =   0.217690E-14
  | Sum of charges compensated after spline to logarithmic grids =   0.458768E-06
  | Analytical far-field extrapolation by fixed multipoles:
  | Hartree multipole sum: apparent total charge =   0.234908E-14
  Summing up the Hartree potential.
  Time summed over all CPUs for potential: real work        3.477 s, elapsed        3.571 s
  | RMS delta_rho error from multipole expansion :   0.209060E-01

  Integrating first-order-Hamiltonian matrix: batch-based integration.
  Time summed over all CPUs for integration: real work       13.762 s, elapsed       15.295 s
 FOH -2.657726349683549E-003 -9.927779410626967E-005  2.478476195937856E-006
  7.053148596917810E-003  4.873521472014084E-004 -3.284376266140188E-004
  1.844004892358070E-002  7.186897051641409E-004  2.336771645984031E-005
 FOH  2.523576385412453E-002 -6.309450246577624E-005 -8.112089761571449E-005
  0.000000000000000E+000  7.290336074096249E-003  3.825444013623892E-003
  0.000000000000000E+000  0.000000000000000E+000  2.048026884634876E-002
 FOH  0.000000000000000E+000  0.000000000000000E+000  0.000000000000000E+000
 FOH  1.480875954696776E-002 -8.695351690652470E-003  1.681308920684608E-003
  0.000000000000000E+000  1.404475623382011E-002  1.481700320088697E-005
  0.000000000000000E+000  0.000000000000000E+000  7.104649140992222E-003
 FOH  0.000000000000000E+000  0.000000000000000E+000  0.000000000000000E+000
  0.000000000000000E+000  0.000000000000000E+000  0.000000000000000E+000
  0.000000000000000E+000  0.000000000000000E+000  0.000000000000000E+000
 FOH  0.000000000000000E+000  0.000000000000000E+000  0.000000000000000E+000
 FOH  0.000000000000000E+000  0.000000000000000E+000  0.000000000000000E+000
  0.000000000000000E+000  0.000000000000000E+000  0.000000000000000E+000
  0.000000000000000E+000  0.000000000000000E+000  0.000000000000000E+000
 FOH -4.979801901791363E-006  4.237593153014374E-005  1.346902270662710E-005
 FOH -1.277160719279906E-003  2.876083889416045E-003 -1.064475697473822E-003
 FOH  0.000000000000000E+000  0.000000000000000E+000  0.000000000000000E+000
  0.000000000000000E+000  0.000000000000000E+000  0.000000000000000E+000
  0.000000000000000E+000  0.000000000000000E+000  0.000000000000000E+000
  0.000000000000000E+000  0.000000000000000E+000  0.000000000000000E+000
 FOH  4.966077354111770E-002 -2.025238605621304E-002 -5.366840442338273E-004
  1.134347671769995E-003 -4.129121298813978E-004  2.172366378346374E-002
  5.608153609896881E-004  1.867877701862156E-004 -9.826610246558812E-004
 FOH -4.316838614493030E-003 -2.875348344485923E-005  5.226752332402638E-003
 -2.387800694141003E-005  1.321617526165495E-003 -9.980493421328107E-005
 -1.080742960034825E-005  3.632197054347494E-003 -2.855073571707584E-005
 FOH -1.221183183845261E-003 -6.528021783515787E-004  3.224448285965108E-002
  1.346577779031013E-002 -1.249280065500098E-002  2.196834554678233E-003
  1.330831030585052E-003 -9.440657091803377E-005 -2.528398481451874E-002
  0.000000000000000E+000  0.000000000000000E+000  0.000000000000000E+000
 FOH  1.251361443956392E-002  1.373244053621704E-003  1.795851336385067E-004
  0.000000000000000E+000  1.253997179709391E-002  1.205673366882460E-003
  0.000000000000000E+000  0.000000000000000E+000  1.315265792110422E-002
 FOH -7.627604075009076E-003 -2.704647939339355E-004 -6.802378035709481E-003
  0.000000000000000E+000 -8.248974342502491E-003  1.386334072578365E-002
  0.000000000000000E+000  0.000000000000000E+000 -8.055371848527932E-003
 FOH  0.000000000000000E+000  0.000000000000000E+000  0.000000000000000E+000
  0.000000000000000E+000  0.000000000000000E+000  0.000000000000000E+000
  0.000000000000000E+000  0.000000000000000E+000  0.000000000000000E+000
 -3.554097145613810E-004 -1.720867380761861E-003  6.569863724826022E-002
  3.517497463885168E-006  4.538888240941504E-004  5.561527457243873E-005
  4.651202799407250E-005 -4.400760531952603E-004 -2.187762137034953E-004
  4.164353744570065E-003 -4.411262473042233E-003 -6.027307604892408E-002
  0.000000000000000E+000  0.000000000000000E+000  0.000000000000000E+000
  0.000000000000000E+000  0.000000000000000E+000  0.000000000000000E+000
 FOU  3.894322035257539E-005 -4.242305015979529E-005  2.904652721523030E-006
  1.352228302068055E-002  1.160692800777205E-003  3.119770139592572E-004
  1.305116051122889E-002  1.718965638328187E-003  4.268267031831075E-003
 FOU -3.166751287346895E-005 -1.398632163708959E-005  1.824629311283738E-004
  2.107566365271070E-004  3.255456322618188E-005 -1.927247511686832E-004
  4.036319073494786E-005 -1.817385787756933E-004 -1.836341808673691E-004
 FOU  0.000000000000000E+000  0.000000000000000E+000  0.000000000000000E+000
  0.000000000000000E+000  0.000000000000000E+000  0.000000000000000E+000
  0.000000000000000E+000  0.000000000000000E+000  0.000000000000000E+000
 FOU -6.092601505075655E-005 -2.511639958993042E-006  1.220536710161582E-006
  3.279936605806821E-005  9.163529867986464E-003 -1.327484829529697E-004
 -6.941355678110779E-005  2.608326336320714E-003 -9.658116429509215E-004
 FOU  0.000000000000000E+000  0.000000000000000E+000  0.000000000000000E+000
 FOU -3.894314038443171E-005 -1.352228334396969E-002 -1.305108318747293E-002
 FOU  0.000000000000000E+000  0.000000000000000E+000  0.000000000000000E+000
  0.000000000000000E+000  0.000000000000000E+000  0.000000000000000E+000
  0.000000000000000E+000  0.000000000000000E+000  0.000000000000000E+000
 FOU  0.000000000000000E+000  0.000000000000000E+000  0.000000000000000E+000
  0.000000000000000E+000  0.000000000000000E+000  0.000000000000000E+000
  0.000000000000000E+000  0.000000000000000E+000  0.000000000000000E+000
 FOU  6.092635538390717E-005 -3.282106446083548E-005  6.938192735910000E-005
  2.510979299809080E-006 -9.163504498370615E-003 -2.608345664736819E-003
 -1.221215211414717E-006  1.327606826217103E-004  9.658242545817691E-004
 FOU  0.000000000000000E+000  0.000000000000000E+000  0.000000000000000E+000
 FOU  0.000000000000000E+000  0.000000000000000E+000  0.000000000000000E+000
 FOU  0.000000000000000E+000  0.000000000000000E+000  0.000000000000000E+000
  0.000000000000000E+000  0.000000000000000E+000  0.000000000000000E+000
  0.000000000000000E+000  0.000000000000000E+000  0.000000000000000E+000
 FOU  3.166797770866026E-005 -2.107538622930171E-004 -4.034881882684255E-005
  1.398560626963505E-005 -3.256025281150479E-005  1.817346738088814E-004
 -1.824632150732609E-004  1.927184888142881E-004  1.836020263858722E-004
 FOU  0.000000000000000E+000  0.000000000000000E+000  0.000000000000000E+000
  0.000000000000000E+000  0.000000000000000E+000  0.000000000000000E+000
  0.000000000000000E+000  0.000000000000000E+000  0.000000000000000E+000
 FOU  0.000000000000000E+000  0.000000000000000E+000  0.000000000000000E+000
  0.000000000000000E+000  0.000000000000000E+000  0.000000000000000E+000
  0.000000000000000E+000  0.000000000000000E+000  0.000000000000000E+000
  0.000000000000000E+000  0.000000000000000E+000  0.000000000000000E+000
  4.242404817663569E-005 -1.160663492605509E-003 -1.718831753265564E-003
 FOU  0.000000000000000E+000  0.000000000000000E+000  0.000000000000000E+000
  0.000000000000000E+000  0.000000000000000E+000  0.000000000000000E+000
  0.000000000000000E+000  0.000000000000000E+000  0.000000000000000E+000
  0.000000000000000E+000  0.000000000000000E+000  0.000000000000000E+000
  0.000000000000000E+000  0.000000000000000E+000  0.000000000000000E+000
 -2.904844373558719E-006 -3.119613978687502E-004 -4.268154258322546E-003
  0.000000000000000E+000  0.000000000000000E+000  0.000000000000000E+000
  0.000000000000000E+000  0.000000000000000E+000  0.000000000000000E+000
  0.000000000000000E+000  0.000000000000000E+000  0.000000000000000E+000

  CP-self-consistency cycle converged.

  End CPSCF iteration #     6                  :  max(cpu_time)    wall_clock(cpu1)
  | Time for this iteration                     :        1.372 s           1.372 s
  | first_order_DM                              :        0.004 s           0.002 s
  | first_order_density                         :        0.164 s           0.163 s
  | first_order_potential                       :        0.240 s           0.240 s
  | first_order_H                               :        0.960 s           0.958 s
  | Solution of Sternheimer eqns.               :        0.004 s           0.003 s
------------------------------------------------------------
dP_dE (Bohr^3) at every cycle:--->
 (12.3520955015120,0.000000000000000E+000) (1.00992487367398,0.000000000000000E+000) (-0.227554987426701,0.000000000000000E+000)
 (1.00983933826319,0.000000000000000E+000) (10.8960994644677,0.000000000000000E+000) (5.177340051635042E-002,0.000000000000000E+000)
 (-0.227526066514668,0.000000000000000E+000) (5.169559667270199E-002,0.000000000000000E+000) (15.4830444331967,0.000000000000000E+000)
DFPT polarizability (Bohr^3)        xx        yy        zz        xy        xz        yz
  | Polarizability:--->                        12.352095502                   10.896099464                   15.483044433                    1.009924874                   -0.227554987                    0.051773401

DFPT for dielectric_constant:--->  # PARSE DFPT_dielectric_tensor
               1.184011043632220             0.015045004304908            -0.003389921225510
               0.015043730070896             1.162320849424435             0.000771276214650
              -0.003389490386289             0.000770117158969             1.230653265626696

                                               :  max(cpu_time)    wall_clock(cpu1)
  | Time for  dielectric calculation            :        0.004 s           0.001 s
===========================================================================

------------------------------------------------------------------------------
  Final output of selected total energy values:

  The following output summarizes some interesting total energy values
  at the end of a run (AFTER all relaxation, molecular dynamics, etc.).

  | Total energy of the DFT / Hartree-Fock s.c.f. calculation      :          -2078.290218875 eV
  | Final zero-broadening corrected energy (caution - metals only) :          -2078.290218875 eV
  | For reference only, the value of 1 Hartree used in FHI-aims is :             27.211384500 eV
  | For reference only, the overall average (free atom contribution
  | + realspace contribution) of the electrostatic potential after
  | s.c.f. convergence is                                          :             -1.115073730 eV

  Before relying on these values, please be sure to understand exactly which
  total energy value is referred to by a given number. Different objects may
  all carry the same name 'total energy'. Definitions:

  Total energy of the DFT / Hartree-Fock s.c.f. calculation:
  | Note that this energy does not include ANY quantities calculated after the
  | s.c.f. cycle, in particular not ANY RPA, MP2, etc. many-body perturbation terms.

  Final zero-broadening corrected energy:
  | For metallic systems only, a broadening of the occupation numbers at the Fermi
  | level can be extrapolated back to zero broadening by an electron-gas inspired
  | formula. For all systems that are not real metals, this value can be
  | meaningless and should be avoided.

------------------------------------------------------------------------------
  Methods described in the following list of references were used in this FHI-aims run.
  If you publish the results, please make sure to cite these reference if they apply.
  FHI-aims is an academic code, and for our developers (often, Ph.D. students
  and postdocs), scientific credit in the community is essential.
  Thank you for helping us!

  For any use of FHI-aims, please cite:

    Volker Blum, Ralf Gehrke, Felix Hanke, Paula Havu, Ville Havu,
    Xinguo Ren, Karsten Reuter, and Matthias Scheffler
    'Ab initio molecular simulations with numeric atom-centered orbitals'
    Computer Physics Communications 180, 2175-2196 (2009)
    http://doi.org/10.1016/j.cpc.2009.06.022


  The provided symmetry information was generated with SPGlib:

    Atsushi Togo, Yusuke Seto, Dimitar Pashov
    SPGlib 1.7.3 obtained from http://spglib.sourceforge.net
    Copyright (C) 2008 Atsushi Togo


  The DFPT (perturbation by an electric field) part of the code was used.
  Here is the corresponding reference:

    Honghui Shang, Nathaniel Raimbault, Mariana Rossi,
    Christian Carbogno, Patrick Rinke and Matthias Scheffler,
    'All-Electron, Real-Space Perturbation Theory for Homogeneous
    Electric Fields: Theory, Implementation, and Application within dft'
    New Journal of Physics, 20(7):073040, 2018


  The ELSI infrastructure was used in your run to solve the Kohn-Sham electronic structure.
  Please check out http://elsi-interchange.org to learn more.
  If scalability is important for your project, please acknowledge ELSI by citing:

    V. W-z. Yu, F. Corsetti, A. Garcia, W. P. Huhn, M. Jacquelin, W. Jia,
    B. Lange, L. Lin, J. Lu, W. Mi, A. Seifitokaldani, A. Vazquez-Mayagoitia,
    C. Yang, H. Yang, and V. Blum
    'ELSI: A unified software interface for Kohn-Sham electronic structure solvers'
    Computer Physics Communications 222, 267-285 (2018).
    http://doi.org/10.1016/j.cpc.2017.09.007


  For the real-space grid partitioning and parallelization used in this calculation, please cite:

    Ville Havu, Volker Blum, Paula Havu, and Matthias Scheffler,
    'Efficient O(N) integration for all-electron electronic structure calculation'
    'using numerically tabulated basis functions'
    Journal of Computational Physics 228, 8367-8379 (2009).
    http://doi.org/10.1016/j.jcp.2009.08.008

  Of course, there are many other important community references, e.g., those cited in the
  above references. Our list is limited to references that describe implementations in the
  FHI-aims code. The reason is purely practical (length of this list) - please credit others as well.

------------------------------------------------------------
          Leaving FHI-aims.
          Date     :  20221003, Time     :  095942.030

          Computational steps:
          | Number of self-consistency cycles          :           34
          | Number of SCF (re)initializations          :            1
          | Number of coupled perturbed self-consistency cycles          :            0
          | Number of CPSCF (re)initializations          :            0

          Detailed time accounting                     :  max(cpu_time)    wall_clock(cpu1)
          | Total time                                  :       36.092 s          36.199 s
          | Preparation time                            :        0.144 s           0.149 s
          | Boundary condition initalization            :        0.048 s           0.047 s
          | Grid partitioning                           :        0.032 s           0.030 s
          | Preloading free-atom quantities on grid     :        0.084 s           0.079 s
          | Free-atom superposition energy              :        0.036 s           0.034 s
          | Total time for integrations                 :        1.268 s           1.242 s
          | Total time for solution of K.-S. equations  :        0.128 s           0.103 s
          | Total time for density update               :        2.148 s           2.123 s
          | Total time for mixing & preconditioning     :        1.160 s           1.151 s
          | Total time for Hartree multipole update     :        0.080 s           0.070 s
          | Total time for Hartree multipole sum        :        2.936 s           2.917 s
          | Total time for total energy evaluation      :        0.064 s           0.021 s
          | Total time first_order_DM                   :        0.084 s           0.059 s
          | Total time first_order_density              :        3.024 s           2.990 s
          | Total time first_order_potential            :        4.916 s           4.871 s
          | Total time first_order_H                    :       19.128 s          19.106 s
          | Total time solving of Sternheimer equations :        0.080 s           0.052 s
          | Total time for dielectric constant          :        0.004 s           0.001 s
          | Total time momentum matrix                  :        0.000 s           0.000 s

          Partial memory accounting:
          | Residual value for overall tracked memory usage across tasks:     0.000000 MB (should be 0.000000 MB)
          | Peak values for overall tracked memory usage:
          |   Minimum:        9.308 MB (on task  5 after allocating DFPT_pulay_mixing::pulay_mix::alphas)
          |   Maximum:        9.312 MB (on task  0 after allocating DFPT_pulay_mixing::pulay_mix::alphas)
          |   Average:        9.309 MB
          | Largest tracked array allocation:
          |   Minimum:        3.338 MB (DFPT_pulay_mixing::initialize_pulay_mixing::X_in_diffs on task  0)
          |   Maximum:        3.338 MB (DFPT_pulay_mixing::initialize_pulay_mixing::X_in_diffs on task  0)
          |   Average:        3.338 MB
          Note:  These values currently only include a subset of arrays which are explicitly tracked.
          The "true" memory usage will be greater.

          Have a nice day.
------------------------------------------------------------
