------------------------------------------------------------
          Invoking FHI-aims ...

          When using FHI-aims, please cite the following reference:

            Volker Blum, Ralf Gehrke, Felix Hanke, Paula Havu,
            Ville Havu, Xinguo Ren, Karsten Reuter, and Matthias Scheffler,
            'Ab Initio Molecular Simulations with Numeric Atom-Centered Orbitals',
            Computer Physics Communications 180, 2175-2196 (2009)

          In addition, many other developments in FHI-aims are likely important for
          your particular application. A partial list of references is given at the end of
          this file. Thank you for giving credit to the authors of these developments.

          For any questions about FHI-aims, please visit our slack channel at

            https://fhi-aims.slack.com

          and our main development and support site at

            https://aims-git.rz-berlin.mpg.de .

          The latter site, in particular, has a wiki to collect information, as well
          as an issue tracker to log discussions, suggest improvements, and report issues
          or bugs. https://aims-git.rz-berlin.mpg.de is also the main development site
          of the project and all new and updated code versions can be obtained there.
          Please send an email to aims-coordinators@fhi-berlin.mpg.de and we will add
          you to these sites. They are for you and everyone is welcome there.

------------------------------------------------------------



  Date     :  20221003, Time     :  095449.729
  Time zero on CPU 1             :   0.400000000000000E-01  s.
  Internal wall clock time zero  :           434022889.729  s.

  FHI-aims created a unique identifier for this run for later identification
  aims_uuid : 9B56D746-6C3A-4D1C-A51B-239D5C4AC2B8

  Build configuration of the current instance of FHI-aims
  -------------------------------------------------------
  FHI-aims version      : 220810
  Commit number         : eae8be818
  CMake host system     : Linux-4.9.0-16-amd64
  CMake version         : 3.17.3
  Fortran compiler      : /opt/easybuild/software/impi/2017.3.196-iccifort-2017.4.196-GCC-6.4.0-2.28/bin64/mpiifort (Intel) version 17.0.4.20170411
  Fortran compiler flags: -O3 -ip -fp-model precise
  C compiler            : /opt/easybuild/software/icc/2017.4.196-GCC-6.4.0-2.28/compilers_and_libraries_2017.4.196/linux/bin/intel64/icc (Intel) version 17.0.4.20170411
  C compiler flags      : -O3 -ip -fp-model precise -std=gnu99
  Using MPI
  Using ScaLAPACK
  Using LibXC
  Using i-PI
  Using RLSY
  Linking against: /opt/easybuild/software/imkl/2017.3.196-iimpi-2017b/mkl/lib/intel64/libmkl_intel_lp64.so
                   /opt/easybuild/software/imkl/2017.3.196-iimpi-2017b/mkl/lib/intel64/libmkl_sequential.so
                   /opt/easybuild/software/imkl/2017.3.196-iimpi-2017b/mkl/lib/intel64/libmkl_core.so
                   /opt/easybuild/software/imkl/2017.3.196-iimpi-2017b/mkl/lib/intel64/libmkl_blacs_intelmpi_lp64.so
                   /opt/easybuild/software/imkl/2017.3.196-iimpi-2017b/mkl/lib/intel64/libmkl_scalapack_lp64.so

  Using       16 parallel tasks.
  Task        0 on host mpsd-hpc-ibm-056 reporting.
  Task        1 on host mpsd-hpc-ibm-056 reporting.
  Task        2 on host mpsd-hpc-ibm-056 reporting.
  Task        3 on host mpsd-hpc-ibm-056 reporting.
  Task        4 on host mpsd-hpc-ibm-057 reporting.
  Task        5 on host mpsd-hpc-ibm-057 reporting.
  Task        6 on host mpsd-hpc-ibm-057 reporting.
  Task        7 on host mpsd-hpc-ibm-057 reporting.
  Task        8 on host mpsd-hpc-ibm-058 reporting.
  Task        9 on host mpsd-hpc-ibm-058 reporting.
  Task       10 on host mpsd-hpc-ibm-058 reporting.
  Task       11 on host mpsd-hpc-ibm-058 reporting.
  Task       12 on host mpsd-hpc-ibm-059 reporting.
  Task       13 on host mpsd-hpc-ibm-059 reporting.
  Task       14 on host mpsd-hpc-ibm-059 reporting.
  Task       15 on host mpsd-hpc-ibm-059 reporting.

  Performing system and environment tests:
  | Environment variable OMP_NUM_THREADS correctly set to 1.
  | Checking for ScaLAPACK...
  | Testing pdtran()...
  | All pdtran() tests passed.

  Obtaining array dimensions for all initial allocations:
  
  -----------------------------------------------------------------------
  Parsing control.in (first pass over file, find array dimensions only).
  The contents of control.in will be repeated verbatim below
  unless switched off by setting 'verbatim_writeout .false.' .
  in the first line of control.in .
  -----------------------------------------------------------------------
  
  #########################################################################################
  #
  #  Volker Blum, 2017 : Test run input file control.in for simple H2O
  #
  #########################################################################################
  #
  #  Physical model
  #
    xc                 pbe
    spin               none
    relativistic       none
    charge             0.
  
  #  ri_density_restart         write
  #  ri_rho1 write
  #  ri_full_output .True.
  #  ri_output_density_only .True.
    DFPT dielectric
    sc_accuracy_rho    1d-6
  #  use_calculate_fock_matrix_old .false.
  #  output cube total_density
    k_grid 1 1 1
    wave_threshold 1e-8
  
  # prodbas_threshold 1e-2
  #
  #  Relaxation
  #
  #  relax_geometry   bfgs 1.e-2
  #
  
  ################################################################################
  
  ################################################################################
  #
  #  FHI-aims code project
  #  VB, Fritz-Haber Institut, 2009
  #
  #  Suggested "light" defaults for O atom (to be pasted into control.in file)
  #  Be sure to double-check any results obtained with these settings for post-processing,
  #  e.g., with the "tight" defaults and larger basis sets.
  #
  ################################################################################
    species        O
  #     global species definitions
      nucleus             8
      mass                15.9994
  #
      l_hartree           6
  #
      cut_pot             4.0  2.0  1.0
      basis_dep_cutoff    1e-4
  #
      radial_base         36 7.0
      radial_multiplier   2
       angular_grids specified
        division   0.2659   50
        division   0.4451  110
        division   0.6052  194
        division   0.7543  302
        division   0.8014  434
  #      division   0.8507  590
  #      division   0.8762  770
  #      division   0.9023  974
  #      division   1.2339 1202
  #      outer_grid 974
        outer_grid 434
  ################################################################################
  #
  #  Definition of "minimal" basis
  #
  ################################################################################
  #     valence basis states
      valence      2  s   2.
      valence      2  p   4.
  #     ion occupancy
      ion_occ      2  s   1.
      ion_occ      2  p   3.
  ################################################################################
  #
  #  Suggested additional basis functions. For production calculations,
  #  uncomment them one after another (the most important basis functions are
  #  listed first).
  #
  #
  ################################################################################
  #  "First tier" - improvements: -699.05 meV to -159.38 meV
       hydro 2 p 1.8
       hydro 3 d 7.6
       hydro 3 s 6.4
  #  "Second tier" - improvements: -49.91 meV to -5.39 meV
       hydro 4 f 11.6
       hydro 3 p 6.2
       hydro 3 d 5.6
       hydro 5 g 17.6
       hydro 1 s 0.75
  #  "Third tier" - improvements: -2.83 meV to -0.50 meV
  #     ionic 2 p auto
  #     hydro 4 f 10.8
  #     hydro 4 d 4.7
  #     hydro 2 s 6.8
  #  "Fourth tier" - improvements: -0.40 meV to -0.12 meV
  #     hydro 3 p 5
  #     hydro 3 s 3.3
  #     hydro 5 g 15.6
  #     hydro 4 f 17.6
  #     hydro 4 d 14
  # Further basis functions - -0.08 meV and below
  #     hydro 3 s 2.1
  #     hydro 4 d 11.6
  #     hydro 3 p 16
  #     hydro 2 s 17.2
  ################################################################################
  #
  #  FHI-aims code project
  #  VB, Fritz-Haber Institut, 2009
  #
  #  Suggested "light" defaults for H atom (to be pasted into control.in file)
  #  Be sure to double-check any results obtained with these settings for post-processing,
  #  e.g., with the "tight" defaults and larger basis sets.
  #
  ################################################################################
    species        H
  #     global species definitions
      nucleus             1
      mass                1.00794
  #
      l_hartree           6
  #
      cut_pot             4.0  2.0  1.0
      basis_dep_cutoff    1e-4
  #
      radial_base         24 7.0
      radial_multiplier   2
      angular_grids       specified
        division   0.2421   50
        division   0.3822  110
        division   0.4799  194
        division   0.5341  302
        division   0.5626  434
  #      division   0.5922  590
  #      division   0.6542  770
  #      division   0.6868 1202
  #      outer_grid  770
        outer_grid  434
  ################################################################################
  #
  #  Definition of "minimal" basis
  #
  ################################################################################
  #     valence basis states
      valence      1  s   1.
  #     ion occupancy
      ion_occ      1  s   0.5
  ################################################################################
  #
  #  Suggested additional basis functions. For production calculations,
  #  uncomment them one after another (the most important basis functions are
  #  listed first).
  #
  #  Basis constructed for dimers: 0.5 A, 0.7 A, 1.0 A, 1.5 A, 2.5 A
  #
  ################################################################################
  #  "First tier" - improvements: -1014.90 meV to -62.69 meV
       hydro 2 s 2.1
       hydro 2 p 3.5
  #  "Second tier" - improvements: -12.89 meV to -1.83 meV
      hydro 1 s 0.85
      hydro 2 p 3.7
      hydro 2 s 1.2
      hydro 3 d 7
  #  "Third tier" - improvements: -0.25 meV to -0.12 meV
  #    hydro 4 f 11.2
  #    hydro 3 p 4.8
  #    hydro 4 d 9
  #    hydro 3 s 3.2
  #
  
  
  -----------------------------------------------------------------------
  Completed first pass over input file control.in .
  -----------------------------------------------------------------------
  
  
  -----------------------------------------------------------------------
  Parsing geometry.in (first pass over file, find array dimensions only).
  The contents of geometry.in will be repeated verbatim below
  unless switched off by setting 'verbatim_writeout .false.' .
  in the first line of geometry.in .
  -----------------------------------------------------------------------
  
  #=======================================================
  # FHI-aims file: qmdata/data/geoms/290.in
  # Created using the Atomic Simulation Environment (ASE)
  # Wed Sep 21 12:30:23 2022
  #=======================================================
  lattice_vector 5.0000000000000000 0.0000000000000000 0.0000000000000000
  lattice_vector 0.0000000000000000 5.0000000000000000 0.0000000000000000
  lattice_vector 0.0000000000000000 0.0000000000000000 5.0000000000000000
  atom 0.0747422100000000 0.0000087100000000 0.0041697800000000 O
  atom -0.5932027700000000 -0.9491242100000000 -0.0330941000000000 H
  atom -0.5931074000000000 0.9489859100000000 -0.0330887800000000 H
  
  -----------------------------------------------------------------------
  Completed first pass over input file geometry.in .
  -----------------------------------------------------------------------
  

  Basic array size parameters:
  | Number of species                 :        2
  | Number of atoms                   :        3
  | Number of lattice vectors         :        3
  | Max. basis fn. angular momentum   :        4
  | Max. atomic/ionic basis occupied n:        2
  | Max. number of basis fn. types    :        2
  | Max. radial fns per species/type  :        8
  | Max. logarithmic grid size        :     1301
  | Max. radial integration grid size :       73
  | Max. angular integration grid size:      434
  | Max. angular grid division number :        8
  | Radial grid for Hartree potential :     1301
  | Number of spin channels           :        1

------------------------------------------------------------
          Reading file control.in.
------------------------------------------------------------
  XC: Using PBE gradient-corrected functionals.
  Spin treatment: No spin polarisation.
  Non-relativistic treatment of kinetic energy.
  Charge =   0.000000E+00: Neutral system requested explicitly.
  DFPT calculation will begin after the DFT/HF calculation.
  Convergence accuracy of self-consistent charge density:  0.1000E-05
  Found k-point grid:         1         1         1
  Threshold value for wave function integration:  0.1000E-07
 
  Reading configuration options for species O                   .
  | Found nuclear charge :   8.0000
  | Found atomic mass :    15.9994000000000      amu
  | Found l_max for Hartree potential  :   6
  | Found cutoff potl. onset [A], width [A], scale factor :    4.00000    2.00000    1.00000
  | Threshold for basis-dependent cutoff potential is   0.100000E-03
  | Found data for basic radial integration grid :    36 points, outermost radius =    7.000 A
  | Found multiplier for basic radial grid :   2
  | Found angular grid specification: user-specified.
  | Specified grid contains     6 separate shells.
  | Check grid settings after all constraints further below.
  | Found free-atom valence shell :  2 s   2.000
  | Found free-atom valence shell :  2 p   4.000
  | No ionic wave fns used. Skipping ion_occ.
  | No ionic wave fns used. Skipping ion_occ.
  | Found hydrogenic basis function :  2 p   1.800
  | Found hydrogenic basis function :  3 d   7.600
  | Found hydrogenic basis function :  3 s   6.400
  | Found hydrogenic basis function :  4 f  11.600
  | Found hydrogenic basis function :  3 p   6.200
  | Found hydrogenic basis function :  3 d   5.600
  | Found hydrogenic basis function :  5 g  17.600
  | Found hydrogenic basis function :  1 s   0.750
  Species O                   : Missing cutoff potential type.
  Defaulting to exp(1/x)/(1-x)^2 type cutoff potential.
  Species O : No 'logarithmic' tag. Using default grid for free atom:
  | Default logarithmic grid data [bohr] : 0.1000E-03 0.1000E+03 0.1012E+01
  Species O : On-site basis accuracy parameter (for Gram-Schmidt orthonormalisation) not specified.
  Using default value basis_acc =  0.1000000E-03.
  Species O                   : Using default innermost maximum threshold i_radial=  2 for radial functions.
  Species O                   : Default cutoff onset for free atom density etc. : 0.40000000E+01 AA.
  Species O                   : Basic radial grid will be enhanced according to radial_multiplier =   2, to contain    73 grid points.
 
  Reading configuration options for species H                   .
  | Found nuclear charge :   1.0000
  | Found atomic mass :    1.00794000000000      amu
  | Found l_max for Hartree potential  :   6
  | Found cutoff potl. onset [A], width [A], scale factor :    4.00000    2.00000    1.00000
  | Threshold for basis-dependent cutoff potential is   0.100000E-03
  | Found data for basic radial integration grid :    24 points, outermost radius =    7.000 A
  | Found multiplier for basic radial grid :   2
  | Found angular grid specification: user-specified.
  | Specified grid contains     6 separate shells.
  | Check grid settings after all constraints further below.
  | Found free-atom valence shell :  1 s   1.000
  | No ionic wave fns used. Skipping ion_occ.
  | Found hydrogenic basis function :  2 s   2.100
  | Found hydrogenic basis function :  2 p   3.500
  | Found hydrogenic basis function :  1 s   0.850
  | Found hydrogenic basis function :  2 p   3.700
  | Found hydrogenic basis function :  2 s   1.200
  | Found hydrogenic basis function :  3 d   7.000
  Species H                   : Missing cutoff potential type.
  Defaulting to exp(1/x)/(1-x)^2 type cutoff potential.
  Species H : No 'logarithmic' tag. Using default grid for free atom:
  | Default logarithmic grid data [bohr] : 0.1000E-03 0.1000E+03 0.1012E+01
  Species H : On-site basis accuracy parameter (for Gram-Schmidt orthonormalisation) not specified.
  Using default value basis_acc =  0.1000000E-03.
  Species H                   : Using default innermost maximum threshold i_radial=  2 for radial functions.
  Species H                   : Default cutoff onset for free atom density etc. : 0.40000000E+01 AA.
  Species H                   : Basic radial grid will be enhanced according to radial_multiplier =   2, to contain    49 grid points.
 
  Finished reading input file 'control.in'.
 
------------------------------------------------------------


------------------------------------------------------------
          Reading geometry description geometry.in.
------------------------------------------------------------
  | The smallest distance between any two atoms is         1.16102068 AA.
  | The first atom of this pair is atom number                      1 .
  | The second atom of this pair is atom number                     3 .
  | Wigner-Seitz cell of the first atom image           0     0     0 .
  | (The Wigner-Seitz cell of the second atom is 0 0 0  by definition.)

  Symmetry information by spglib:
  | Precision set to  0.1E-04
  | Number of Operations  : 1
  | Space group           : 1
  | International         : P1
  | Schoenflies           : C1^1
  Input structure read successfully.
  The structure contains        3 atoms,  and a total of         10.000 electrons.

  Input geometry:
  | Unit cell:
  |        5.00000000        0.00000000        0.00000000
  |        0.00000000        5.00000000        0.00000000
  |        0.00000000        0.00000000        5.00000000
  | Atomic structure:
  |       Atom                x [A]            y [A]            z [A]
  |    1: Species O             0.07474221        0.00000871        0.00416978
  |    2: Species H            -0.59320277       -0.94912421       -0.03309410
  |    3: Species H            -0.59310740        0.94898591       -0.03308878

  Lattice parameters for 3D lattice (in Angstroms) :     5.000000    5.000000    5.000000
  Angle(s) between unit vectors (in degrees)       :    90.000000   90.000000   90.000000


  Quantities derived from the lattice vectors (in Angstrom^-1):
  | Reciprocal lattice vector 1:  1.256637  0.000000  0.000000
  | Reciprocal lattice vector 2:  0.000000  1.256637  0.000000
  | Reciprocal lattice vector 3:  0.000000  0.000000  1.256637
  | Unit cell volume                               :   0.125000E+03  Angstrom^3

  Fractional coordinates:
                         L1                L2                L3
       atom_frac         0.01494844        0.00000174        0.00083396  O
       atom_frac        -0.11864055       -0.18982484       -0.00661882  H
       atom_frac        -0.11862148        0.18979718       -0.00661776  H

 
  Finished reading input file 'geometry.in'.
 

 
  Consistency checks for stacksize environment parameter are next.
 
  | Maximum stacksize for task 0: unlimited
  | Maximum stacksize for task 1: unlimited
  | Maximum stacksize for task 2: unlimited
  | Maximum stacksize for task 3: unlimited
  | Maximum stacksize for task 4: unlimited
  | Maximum stacksize for task 5: unlimited
  | Maximum stacksize for task 6: unlimited
  | Maximum stacksize for task 7: unlimited
  | Maximum stacksize for task 8: unlimited
  | Maximum stacksize for task 9: unlimited
  | Maximum stacksize for task 10: unlimited
  | Maximum stacksize for task 11: unlimited
  | Maximum stacksize for task 12: unlimited
  | Maximum stacksize for task 13: unlimited
  | Maximum stacksize for task 14: unlimited
  | Maximum stacksize for task 15: unlimited
  | Current stacksize for task 0: unlimited
  | Current stacksize for task 1: unlimited
  | Current stacksize for task 2: unlimited
  | Current stacksize for task 3: unlimited
  | Current stacksize for task 4: unlimited
  | Current stacksize for task 5: unlimited
  | Current stacksize for task 6: unlimited
  | Current stacksize for task 7: unlimited
  | Current stacksize for task 8: unlimited
  | Current stacksize for task 9: unlimited
  | Current stacksize for task 10: unlimited
  | Current stacksize for task 11: unlimited
  | Current stacksize for task 12: unlimited
  | Current stacksize for task 13: unlimited
  | Current stacksize for task 14: unlimited
  | Current stacksize for task 15: unlimited
 
  Consistency checks for the contents of control.in are next.
 
  MPI_IN_PLACE appears to work with this MPI implementation.
  | Keeping use_mpi_in_place .true. (see manual).
  Target number of points in a grid batch is not set. Defaulting to  100
  Method for grid partitioning is not set. Defaulting to parallel hash+maxmin partitioning.
  Batch size limit is not set. Defaulting to    200
  By default, will store active basis functions for each batch.
  If in need of memory, prune_basis_once .false. can be used to disable this option.
  communication_type for Hartree potential was not specified.
  Defaulting to calc_hartree .
  Defaulting to Pulay charge density mixer.
  Pulay mixer: Number of relevant iterations not set.
  Defaulting to    8 iterations.
  Pulay mixer: Number of initial linear mixing iterations not set.
  Defaulting to    0 iterations.
  Work space size for distributed Hartree potential not set.
  Defaulting to   0.200000E+03 MB.
  Mixing parameter for charge density mixing has not been set.
  Using default: charge_mix_param =     0.0500.
  The mixing parameter will be adjusted in iteration number     2 of the first full s.c.f. cycle only.
  Algorithm-dependent basis array size parameters:
  | n_max_pulay                         :        8
  Maximum number of self-consistency iterations not provided.
  Presetting  1000 iterations.
  Presetting      1001 iterations before the initial mixing cycle
  is restarted anyway using the sc_init_iter criterion / keyword.
  Presetting a factor      1.000 between actual scf density residual
  and density convergence criterion sc_accuracy_rho below which sc_init_iter
  takes no effect.
  Calculation of forces was not defined in control.in. No forces will be calculated.
  Geometry relaxation not requested: no relaxation will be performed.
  No accuracy limit for integral partition fn. given. Defaulting to  0.1000E-14.
  No occupation type (smearing scheme) given. Defaulting to Gaussian broadening, width =  0.1000E-01 eV.
  The width will be adjusted in iteration number     2 of the first full s.c.f. cycle only.
  S.C.F. convergence parameters will be adjusted in iteration number     2 of the first full s.c.f. cycle only.
  No accuracy for occupation numbers given. Defaulting to  0.1000E-12.
  No threshold value for occupation numbers given. Defaulting to  0.0000E+00.
  No accuracy for fermi level given. Defaulting to  0.1000E-19.
  Maximum # of iterations to find E_F not set. Defaulting to  200.
  Preferred method for the eigenvalue solver ('KS_method') not specified in 'control.in'.
  Calling BLACS routine to test compilation state
  Since ScaLAPACK support is enabled, defaulting to ELPA (via ELSI).
  Will not use alltoall communication since running on < 1024 CPUs.
  Threshold for basis singularities not set.
  Default threshold for basis singularities:  0.1000E-04
  partition_type (choice of integration weights) for integrals was not specified.
  | Using a version of the partition function of Stratmann and coworkers ('stratmann_sparse').
  | At each grid point, the set of atoms used to build the partition table is smoothly restricted to
  | only those atoms whose free-atom density would be non-zero at that grid point.
  Partitioning for Hartree potential was not defined. Using partition_type for integrals.
  | Adjusted default value of keyword multip_moments_threshold to:       0.10000000E-11
  | This value may affect high angular momentum components of the Hartree potential in periodic systems.
  Angular momentum expansion for Kerker preconditioner not set explicitly.
  | Using default value of   0
  No explicit requirement for turning off preconditioner.
  | By default, it will be turned off when the charge convergence reaches
  | sc_accuracy_rho  =   0.100000E-05
  No special mixing parameter while Kerker preconditioner is on.
  Using default: charge_mix_param =     0.0500.
  No q(lm)/r^(l+1) cutoff set for long-range Hartree potential.
  | Using default value of  0.100000E-09 .
  | Verify using the multipole_threshold keyword.
  Defaulting to new monopole extrapolation.
  Density update method: automatic selection selected.
  Using density matrix based charge density update.
  Using density matrix based charge density update.
  Using packed matrix style: index .
  Defaulting to use time-reversal symmetry for k-point grid.
  Charge integration errors on the 3D integration grid will be compensated
  by explicit normalization and distribution of residual charges.
  Use the "compensate_multipole_errors" flag to change this behaviour.
 
  Consistency checks for the contents of geometry.in are next.
 

  Range separation radius for Ewald summation (hartree_convergence_parameter):      5.00000000 bohr.
  Number of empty states per atom not set in control.in .
  | Since you are using a method that relies on the unoccupied spectrum
  | (MP2,GW,RPA et al.), will use the full Hamiltonian size (see below)
  | as the max. possible number of states (occupied plus empty).

  Structure-dependent array size parameters: 
  | Maximum number of distinct radial functions  :       18
  | Maximum number of basis functions            :       69
  | Number of Kohn-Sham states (occupied + empty):       69
------------------------------------------------------------

------------------------------------------------------------
          Preparing all fixed parts of the calculation.
------------------------------------------------------------
  Determining machine precision:
    2.225073858507201E-308
  Setting up grids for atomic and cluster calculations.

  Creating wave function, potential, and density for free atoms.
  Runtime choices for atomic solver:
  | atomic solver xc        : PBE
  | compute density gradient: 1
  | compute kinetic density : F

  Species: O

  List of occupied orbitals and eigenvalues:
    n    l              occ      energy [Ha]    energy [eV]
    1    0           2.0000       -18.898576      -514.2564
    2    0           2.0000        -0.878795       -23.9132
    2    1           4.0000        -0.332075        -9.0362


  Species: H

  List of occupied orbitals and eigenvalues:
    n    l              occ      energy [Ha]    energy [eV]
    1    0           1.0000        -0.238382        -6.4867


  Adding cutoff potential to free-atom effective potential.
  Creating fixed part of basis set: Ionic, confined, hydrogenic.
 
  O                    hydrogenic:
 
  List of hydrogenic basis orbitals: 
    n    l      effective z      eigenvalue [eV]  inner max. [A]     outer max. [A]     outer radius [A]   
    2    1         1.800000       -11.0118           1.178562           1.178562           5.567066
    3    2         7.600000       -87.3182           0.624125           0.624125           3.764702
    3    0         6.400000       -61.9209           0.061167           1.081902           4.522403
    4    3        11.600000      -114.4238           0.731631           0.731631           3.811008
    3    1         6.200000       -58.1113           0.255680           1.030270           4.522403
    3    2         5.600000       -47.4081           0.847233           0.847233           4.578029
    5    4        17.600000      -168.5799           0.749740           0.749740           3.629133
    1    0         0.750000        -7.6499           0.705284           0.705284           5.567066
 
 
  H                    hydrogenic:
 
  List of hydrogenic basis orbitals: 
    n    l      effective z      eigenvalue [eV]  inner max. [A]     outer max. [A]     outer radius [A]   
    2    0         2.100000       -14.9965           0.193243           1.317208           5.573719
    2    1         3.500000       -41.6672           0.602369           0.602369           4.259334
    1    0         0.850000        -9.8292           0.624871           0.624871           5.573719
    2    1         3.700000       -46.5653           0.573622           0.573622           4.105953
    2    0         1.200000        -4.5995           0.334980           2.228188           5.642276
    3    2         7.000000       -74.0753           0.680699           0.680699           3.958095
 
  Creating atomic-like basis functions for current effective potential.

  Species O                   :

  List of atomic basis orbitals and eigenvalues:
    n    l      energy [Ha]    energy [eV]    outer radius [A]
    1    0       -18.898576      -514.2564       1.807907
    2    0        -0.878795       -23.9132       5.366593
    2    1        -0.332075        -9.0362       5.499423


  Species H                   :

  List of atomic basis orbitals and eigenvalues:
    n    l      energy [Ha]    energy [eV]    outer radius [A]
    1    0        -0.238382        -6.4867       5.573719

  Assembling full basis from fixed parts.
  | Species O :   atomic orbital   1 s accepted.
  | Species O :    hydro orbital   3 s accepted.
  | Species O :   atomic orbital   2 s accepted.
  | Species O :    hydro orbital   1 s accepted.
  | Species O :    hydro orbital   3 p accepted.
  | Species O :   atomic orbital   2 p accepted.
  | Species O :    hydro orbital   2 p accepted.
  | Species O :    hydro orbital   3 d accepted.
  | Species O :    hydro orbital   3 d accepted.
  | Species O :    hydro orbital   4 f accepted.
  | Species O :    hydro orbital   5 g accepted.
  | Species H :   atomic orbital   1 s accepted.
  | Species H :    hydro orbital   2 s accepted.
  | Species H :    hydro orbital   1 s accepted.
  | Species H :    hydro orbital   2 s accepted.
  | Species H :    hydro orbital   2 p accepted.
  | Species H :    hydro orbital   2 p accepted.
  | Species H :    hydro orbital   3 d accepted.
 
  Basis size parameters after reduction:
  | Total number of radial functions:       18
  | Total number of basis functions :       69
 
  Per-task memory consumption for arrays in subroutine allocate_ext:
  |           4.499020MB.
  Testing on-site integration grid accuracy.
  |  Species  Function  <phi|h_atom|phi> (log., in eV)  <phi|h_atom|phi> (rad., in eV)
           1        1               -514.2564144315               -514.2564099626
           1        2                 15.1726678541                 15.1726530877
           1        3                -21.5447785304                -21.5447874973
           1        4                 14.4944558459                 14.4944698284
           1        5                 20.8882174564                 20.8882178906
           1        6                 -2.4850315909                 -2.4850322289
           1        7                 13.8600193195                 13.8599826966
           1        8                 45.8243383616                 45.8243383675
           1        9                 52.1840606465                 52.1840622440
           1       10                 85.4074185510                 85.4074185819
           1       11                142.0983717302                142.0983717339
           2       12                 -6.4869821809                 -6.4870742227
           2       13                 13.5044133542                 13.5041049177
           2       14                 32.7854418792                 32.7779770519
           2       15                 33.7995553101                 33.7152624900 ***
           2       16                 28.8558651799                 28.8558652046
           2       17                 59.6361831893                 59.6362535845
           2       18                 60.2733718049                 60.2733715484
 * Note: Onsite integrals marked "***" above are less accurate than
 * onsite_accuracy_threshold =    0.03000 eV. Usually, this is harmless.
 * When in doubt, tighten the "radial" and/or "radial_multiplier" flags to check.

  Preparing densities etc. for the partition functions (integrals / Hartree potential).

  Preparations completed.
  max(cpu_time)          :      0.136 s.
  Wall clock time (cpu1) :      0.141 s.
------------------------------------------------------------

  Initializing index lists of integration centers etc. from given atomic structure:
  Mapping all atomic coordinates to central unit cell.

  Initializing the k-points
  Using symmetry for reducing the k-points
  | k-points reduced from:        1 to        1
  | Number of k-points                             :         1
  | Consuming          0 KiB for k_phase_exx.
  The eigenvectors in the calculations are REAL.
  | Number of basis functions in the Hamiltonian integrals :      1559
  | Number of basis functions in a single unit cell        :        69
  | Number of centers in hartree potential         :       663
  | Number of centers in hartree multipole         :       251
  | Number of centers in electron density summation:       191
  | Number of centers in basis integrals           :       211
  | Number of centers in integrals                 :        81
  | Number of centers in hamiltonian               :       191
  | Consuming          1 KiB for k_phase.
  | Number of super-cells (origin) [n_cells]                     :        1331
  | Number of super-cells (after PM_index) [n_cells]             :          74
  | Number of super-cells in hamiltonian [n_cells_in_hamiltonian]:          74
  | Size of matrix packed + index [n_hamiltonian_matrix_size] :       62147
  | Size of matrix packed + index (no_symmetry):      122296

------------------------------------------------------------
          Begin self-consistency loop: Initialization.

          Date     :  20221003, Time     :  095449.970
------------------------------------------------------------
  | Estimated reciprocal-space cutoff momentum G_max:         1.90186217 bohr^-1 .
  | Reciprocal lattice points for long-range Hartree potential:      92
  Using simple linear distribution as default method for k-point parallelism.
  * Using 16 tasks for Scalapack Eigenvalue solver.
  Detailed listing of tasks and assigned k-points:
   Task     0 k-point     1 on mpsd-hpc-ibm-056
   Task     1 k-point     1 on mpsd-hpc-ibm-056
   Task     2 k-point     1 on mpsd-hpc-ibm-056
   Task     3 k-point     1 on mpsd-hpc-ibm-056
   Task     4 k-point     1 on mpsd-hpc-ibm-057
   Task     5 k-point     1 on mpsd-hpc-ibm-057
   Task     6 k-point     1 on mpsd-hpc-ibm-057
   Task     7 k-point     1 on mpsd-hpc-ibm-057
   Task     8 k-point     1 on mpsd-hpc-ibm-058
   Task     9 k-point     1 on mpsd-hpc-ibm-058
   Task    10 k-point     1 on mpsd-hpc-ibm-058
   Task    11 k-point     1 on mpsd-hpc-ibm-058
   Task    12 k-point     1 on mpsd-hpc-ibm-059
   Task    13 k-point     1 on mpsd-hpc-ibm-059
   Task    14 k-point     1 on mpsd-hpc-ibm-059
   Task    15 k-point     1 on mpsd-hpc-ibm-059
  K-point:     1 Tasks:    16 split into      4 X      4 BLACS grid
  Calculating block size based on n_basis =           69  max_nprow =            4  max_npcol =            4
  ScaLAPACK block size set to:           16
  Allocating        0.003 MB for ovlp
  Allocating        0.003 MB for ham
  Allocating        0.003 MB for eigenvec
  Required Scalapack workspace - INTEGER:            1  REAL:             1
  Partitioning the integration grid into batches with parallel hashing+maxmin method.
  | Number of batches:      514
  | Maximal batch size:     161
  | Minimal batch size:      50
  | Average batch size:      91.226
  | Standard deviation of batch sizes:      23.549

  Integration load balanced across    16 MPI tasks.
  Work distribution over tasks is as follows:
  Task     0 has       2929 integration points.
  Task     1 has       2934 integration points.
  Task     2 has       2928 integration points.
  Task     3 has       2907 integration points.
  Task     4 has       2949 integration points.
  Task     5 has       2912 integration points.
  Task     6 has       2919 integration points.
  Task     7 has       2963 integration points.
  Task     8 has       2912 integration points.
  Task     9 has       2902 integration points.
  Task    10 has       2908 integration points.
  Task    11 has       2956 integration points.
  Task    12 has       2947 integration points.
  Task    13 has       2918 integration points.
  Task    14 has       2956 integration points.
  Task    15 has       2950 integration points.
  Initializing partition tables, free-atom densities, potentials, etc. across the integration grid (initialize_grid_storage).
  | initialize_grid_storage: Actual outermost partition radius vs. multipole_radius_free
  | (-- VB: in principle, multipole_radius_free should be larger, hence this output)
  | Species        1: Confinement radius =              6.000000000000000 AA, multipole_radius_free =              6.064445521808699 AA.
  | Species        1: outer_partition_radius set to              6.064445521808699 AA .
  | Species        2: Confinement radius =              6.000000000000000 AA, multipole_radius_free =              6.071692442739658 AA.
  | Species        2: outer_partition_radius set to              6.071692442739658 AA .
  | The sparse table of interatomic distances needs        431.22 kbyte instead of       356.17 kbyte of memory.
  | Using the partition_type stratmann_smoother will reduce your memory usage.
  | Net number of integration points:    46890
  | of which are non-zero points    :    38185
  | Numerical average free-atom electrostatic potential    :     -1.29049374 eV
  Renormalizing the initial density to the exact electron count on the 3D integration grid.
  | Initial density: Formal number of electrons (from input files) :      10.0000000000
  | Integrated number of electrons on 3D grid     :      10.0000019595
  | Charge integration error                      :       0.0000019595
  | Normalization factor for density and gradient :       0.9999998041
  Renormalizing the free-atom superposition density to the exact electron count on the 3D integration grid.
  | Formal number of electrons (from input files) :      10.0000000000
  | Integrated number of electrons on 3D grid     :      10.0000019595
  | Charge integration error                      :       0.0000019595
  | Normalization factor for density and gradient :       0.9999998041
  Obtaining max. number of non-zero basis functions in each batch (get_n_compute_maxes).
  | Maximal number of non-zero basis functions:      428 in task     0
  | Maximal number of non-zero basis functions:      392 in task     1
  | Maximal number of non-zero basis functions:      421 in task     2
  | Maximal number of non-zero basis functions:      412 in task     3
  | Maximal number of non-zero basis functions:      428 in task     4
  | Maximal number of non-zero basis functions:      371 in task     5
  | Maximal number of non-zero basis functions:      371 in task     6
  | Maximal number of non-zero basis functions:      428 in task     7
  | Maximal number of non-zero basis functions:      421 in task     8
  | Maximal number of non-zero basis functions:      428 in task     9
  | Maximal number of non-zero basis functions:      364 in task    10
  | Maximal number of non-zero basis functions:      351 in task    11
  | Maximal number of non-zero basis functions:      361 in task    12
  | Maximal number of non-zero basis functions:      356 in task    13
  | Maximal number of non-zero basis functions:      363 in task    14
  | Maximal number of non-zero basis functions:      392 in task    15
  Integrating Hamiltonian matrix: batch-based integration.
  Time summed over all CPUs for integration: real work        1.081 s, elapsed        1.111 s
  Integrating overlap matrix.
  Time summed over all CPUs for integration: real work        0.616 s, elapsed        0.788 s
  Deallocating overlap matrix.

  Updating Kohn-Sham eigenvalues and eigenvectors using ELSI and the ELPA eigensolver.
  Singularity check in k-point 1 (analysis for other k-points may follow below):
  Overlap matrix is not singular
  | Lowest and highest eigenvalues :  0.6743E-03,  0.6915E+01
  Finished singularity check of overlap matrix
  | Time :     0.003 s
  Starting ELPA eigensolver
  Finished Cholesky decomposition
  | Time :     0.003 s
  Finished transformation to standard eigenproblem
  | Time :     0.001 s
  Finished solving standard eigenproblem
  | Time :     0.004 s
  Finished back-transformation of eigenvectors
  | Time :     0.001 s

  Obtaining occupation numbers and electronic chemical potential using ELSI.
  | Note that, for insulating systems, the printed 'chemical potential' value is not uniquely defined.
  | It can be anywhere in the energy gap, as long as it correctly separates occupied and unoccupied states.
  | In systems with a gap, the physically relevant chemical potential is the VBM or HOMO.

  | Chemical potential (Fermi level):    -5.82960604 eV
  Writing Kohn-Sham eigenvalues.

  State    Occupation    Eigenvalue [Ha]    Eigenvalue [eV]
      1       2.00000         -18.951730         -515.70281
      2       2.00000          -0.994836          -27.07087
      3       2.00000          -0.531646          -14.46682
      4       2.00000          -0.449780          -12.23914
      5       2.00000          -0.391745          -10.65992
      6       0.00000          -0.142173           -3.86873
      7       0.00000          -0.002843           -0.07737
      8       0.00000           0.039091            1.06371
      9       0.00000           0.189422            5.15444
     10       0.00000           0.197391            5.37129
     11       0.00000           0.203973            5.55038
     12       0.00000           0.327741            8.91828
     13       0.00000           0.411690           11.20266
     14       0.00000           0.425514           11.57883
     15       0.00000           0.429142           11.67754
     16       0.00000           0.494217           13.44832
     17       0.00000           0.519002           14.12275
     18       0.00000           0.584358           15.90119
     19       0.00000           0.833665           22.68518
     20       0.00000           0.842056           22.91350
     21       0.00000           1.021130           27.78635
     22       0.00000           1.023629           27.85436
     23       0.00000           1.039208           28.27830
     24       0.00000           1.138852           30.98975
     25       0.00000           1.353048           36.81831
     26       0.00000           1.361324           37.04352
     27       0.00000           1.398092           38.04402
     28       0.00000           1.678553           45.67576
     29       0.00000           2.101255           57.17805
     30       0.00000           2.138301           58.18613
     31       0.00000           2.156659           58.68569
     32       0.00000           2.233815           60.78519
     33       0.00000           2.352264           64.00836
     34       0.00000           2.535758           69.00149
     35       0.00000           2.548937           69.36010
     36       0.00000           2.601020           70.77734
     37       0.00000           2.625772           71.45090
     38       0.00000           2.630079           71.56810
     39       0.00000           2.714071           73.85363
     40       0.00000           2.763688           75.20377
     41       0.00000           3.138362           85.39916
     42       0.00000           3.141769           85.49190
     43       0.00000           3.257968           88.65382
     44       0.00000           3.407864           92.73270
     45       0.00000           3.501379           95.27737
     46       0.00000           3.578882           97.38634
     47       0.00000           3.606583           98.14011
     48       0.00000           3.646716           99.23218
     49       0.00000           3.819145          103.92423
     50       0.00000           3.923360          106.76005
     51       0.00000           4.288007          116.68261
     52       0.00000           4.447298          121.01714
     53       0.00000           4.738659          128.94547
     54       0.00000           4.761376          129.56364
     55       0.00000           4.815948          131.04861
     56       0.00000           4.852588          132.04565
     57       0.00000           5.212068          141.82758
     58       0.00000           5.226689          142.22545
     59       0.00000           5.312275          144.55437
     60       0.00000           5.468830          148.81443
     61       0.00000           5.874755          159.86021
     62       0.00000           6.220766          169.27565
     63       0.00000           6.367033          173.25578
     64       0.00000           6.484131          176.44217
     65       0.00000           6.795660          184.91931
     66       0.00000           7.172476          195.17301
     67       0.00000           7.294478          198.49283
     68       0.00000           7.470065          203.27082
     69       0.00000           8.302809          225.93094

  Highest occupied state (VBM) at    -10.65991554 eV (relative to internal zero)
  | Occupation number:      2.00000000
  | K-point:       1 at    0.000000    0.000000    0.000000 (in units of recip. lattice)

  Lowest unoccupied state (CBM) at    -3.86872721 eV (relative to internal zero)
  | Occupation number:      0.00000000
  | K-point:       1 at    0.000000    0.000000    0.000000 (in units of recip. lattice)

  ESTIMATED overall HOMO-LUMO gap:      6.79118832 eV between HOMO at k-point 1 and LUMO at k-point 1
  The gap value is above 0.2 eV. Unless you are using a very sparse k-point grid,
  this system is most likely an insulator or a semiconductor.
  Calculating total energy contributions from superposition of free atom densities.

  Total energy components:
  | Sum of eigenvalues            :         -42.63947323 Ha       -1160.27910092 eV
  | XC energy correction          :          -8.93782759 Ha        -243.21066307 eV
  | XC potential correction       :          11.48786281 Ha         312.60065214 eV
  | Free-atom electrostatic energy:         -36.30677335 Ha        -987.95756968 eV
  | Hartree energy correction     :           0.00000000 Ha           0.00000000 eV
  | Entropy correction            :           0.00000000 Ha           0.00000000 eV
  | ---------------------------
  | Total energy                  :         -76.39621136 Ha       -2078.84668154 eV
  | Total energy, T -> 0          :         -76.39621136 Ha       -2078.84668154 eV  <-- do not rely on this value for anything but (periodic) metals
  | Electronic free energy        :         -76.39621136 Ha       -2078.84668154 eV

  Derived energy quantities:
  | Kinetic energy                :          75.44416923 Ha        2052.94029727 eV
  | Electrostatic energy          :        -142.90255300 Ha       -3888.57631573 eV
  | Energy correction for multipole
  | error in Hartree potential    :           0.00000000 Ha           0.00000000 eV
  | Sum of eigenvalues per atom                           :        -386.75970031 eV
  | Total energy (T->0) per atom                          :        -692.94889385 eV  <-- do not rely on this value for anything but (periodic) metals
  | Electronic free energy per atom                       :        -692.94889385 eV
  Initialize hartree_potential_storage
  Max. number of atoms included in rho_multipole:            3

  End scf initialization - timings             :  max(cpu_time)    wall_clock(cpu1)
  | Time for scf. initialization                :        0.312 s           0.310 s
  | Boundary condition initialization           :        0.048 s           0.046 s
  | Integration                                 :        0.136 s           0.133 s
  | Solution of K.-S. eqns.                     :        0.048 s           0.045 s
  | Grid partitioning                           :        0.032 s           0.030 s
  | Preloading free-atom quantities on grid     :        0.084 s           0.080 s
  | Free-atom superposition energy              :        0.012 s           0.011 s
  | Total energy evaluation                     :        0.000 s           0.002 s

  Partial memory accounting:
  | Current value for overall tracked memory usage:
  |   Minimum:        0.718 MB (on task  5)
  |   Maximum:        0.722 MB (on task  0)
  |   Average:        0.719 MB
  | Peak value for overall tracked memory usage:
  |   Minimum:        3.433 MB (on task 11 after allocating wave)
  |   Maximum:        4.181 MB (on task  0 after allocating wave)
  |   Average:        3.834 MB
  | Largest tracked array allocation so far:
  |   Minimum:        0.940 MB (hamiltonian_shell on task 11)
  |   Maximum:        1.398 MB (hamiltonian_shell on task  0)
  |   Average:        1.185 MB
  Note:  These values currently only include a subset of arrays which are explicitly tracked.
  The "true" memory usage will be greater.
------------------------------------------------------------
  Evaluating new KS density using the density matrix
  Evaluating density matrix
  Finished density matrix calculation
  | Time :     0.000 s
  Time summed over all CPUs for getting density from density matrix: real work        2.115 s, elapsed        2.198 s
  Integration grid: deviation in total charge (<rho> - N_e) =  -3.552714E-15

  Time for density update prior                :  max(cpu_time)    wall_clock(cpu1)
  | self-consistency iterative process          :        0.144 s           0.141 s

------------------------------------------------------------
          Begin self-consistency iteration #    1

  Date     :  20221003, Time     :  095450.423
------------------------------------------------------------
  Pulay mixing of updated and previous charge densities.
  Renormalizing the density to the exact electron count on the 3D integration grid.
  | Formal number of electrons (from input files) :      10.0000000000
  | Integrated number of electrons on 3D grid     :       9.9996202518
  | Charge integration error                      :      -0.0003797482
  | Normalization factor for density and gradient :       1.0000379763

  Evaluating partitioned Hartree potential by multipole expansion.
  | Original multipole sum: apparent total charge =   0.396331E-14
  | Sum of charges compensated after spline to logarithmic grids =   0.116263E-06
  | Analytical far-field extrapolation by fixed multipoles:
  | Hartree multipole sum: apparent total charge =   0.393718E-14
  Summing up the Hartree potential.
  Time summed over all CPUs for potential: real work        2.469 s, elapsed        2.813 s
  | RMS charge density error from multipole expansion :   0.810900E-04
  | Average real-space part of the electrostatic potential :      0.00838658 eV

  Integrating Hamiltonian matrix: batch-based integration.
  Time summed over all CPUs for integration: real work        1.090 s, elapsed        1.114 s

  Updating Kohn-Sham eigenvalues and eigenvectors using ELSI and the ELPA eigensolver.
  Starting ELPA eigensolver
  Finished transformation to standard eigenproblem
  | Time :     0.001 s
  Finished solving standard eigenproblem
  | Time :     0.004 s
  Finished back-transformation of eigenvectors
  | Time :     0.000 s

  Obtaining occupation numbers and electronic chemical potential using ELSI.
  | Note that, for insulating systems, the printed 'chemical potential' value is not uniquely defined.
  | It can be anywhere in the energy gap, as long as it correctly separates occupied and unoccupied states.
  | In systems with a gap, the physically relevant chemical potential is the VBM or HOMO.

  | Chemical potential (Fermi level):    -5.44287293 eV
  Writing Kohn-Sham eigenvalues.

  State    Occupation    Eigenvalue [Ha]    Eigenvalue [eV]
      1       2.00000         -18.925689         -514.99419
      2       2.00000          -0.982169          -26.72619
      3       2.00000          -0.522085          -14.20664
      4       2.00000          -0.437737          -11.91144
      5       2.00000          -0.378235          -10.29230
      6       0.00000          -0.140520           -3.82373
      7       0.00000           0.001211            0.03296
      8       0.00000           0.040678            1.10690
      9       0.00000           0.192434            5.23640
     10       0.00000           0.198383            5.39829
     11       0.00000           0.206559            5.62075
     12       0.00000           0.329420            8.96397
     13       0.00000           0.414017           11.26597
     14       0.00000           0.427404           11.63026
     15       0.00000           0.430361           11.71072
     16       0.00000           0.496811           13.51891
     17       0.00000           0.521960           14.20325
     18       0.00000           0.585200           15.92411
     19       0.00000           0.834424           22.70584
     20       0.00000           0.845055           22.99511
     21       0.00000           1.024325           27.87330
     22       0.00000           1.025974           27.91816
     23       0.00000           1.043243           28.38809
     24       0.00000           1.144298           31.13793
     25       0.00000           1.362465           37.07455
     26       0.00000           1.367077           37.20006
     27       0.00000           1.408816           38.33584
     28       0.00000           1.685545           45.86602
     29       0.00000           2.104877           57.27662
     30       0.00000           2.140746           58.25267
     31       0.00000           2.160639           58.79397
     32       0.00000           2.238254           60.90599
     33       0.00000           2.355139           64.08660
     34       0.00000           2.537857           69.05859
     35       0.00000           2.555659           69.54301
     36       0.00000           2.608197           70.97266
     37       0.00000           2.632106           71.62325
     38       0.00000           2.632520           71.63452
     39       0.00000           2.721243           74.04879
     40       0.00000           2.767596           75.31011
     41       0.00000           3.145973           85.60627
     42       0.00000           3.147304           85.64250
     43       0.00000           3.265176           88.84996
     44       0.00000           3.413868           92.89607
     45       0.00000           3.506016           95.40356
     46       0.00000           3.584514           97.53958
     47       0.00000           3.612525           98.30181
     48       0.00000           3.655963           99.48381
     49       0.00000           3.820702          103.96659
     50       0.00000           3.930925          106.96592
     51       0.00000           4.298535          116.96910
     52       0.00000           4.453278          121.17985
     53       0.00000           4.745352          129.12760
     54       0.00000           4.767742          129.73685
     55       0.00000           4.823331          131.24951
     56       0.00000           4.856698          132.15749
     57       0.00000           5.219204          142.02177
     58       0.00000           5.234904          142.44899
     59       0.00000           5.321501          144.80541
     60       0.00000           5.477283          149.04446
     61       0.00000           5.883685          160.10322
     62       0.00000           6.228020          169.47305
     63       0.00000           6.374307          173.45372
     64       0.00000           6.493397          176.69431
     65       0.00000           6.804963          185.17246
     66       0.00000           7.178672          195.34162
     67       0.00000           7.302625          198.71455
     68       0.00000           7.478169          203.49132
     69       0.00000           8.311645          226.17136

  Highest occupied state (VBM) at    -10.29229860 eV (relative to internal zero)
  | Occupation number:      2.00000000
  | K-point:       1 at    0.000000    0.000000    0.000000 (in units of recip. lattice)

  Lowest unoccupied state (CBM) at    -3.82373369 eV (relative to internal zero)
  | Occupation number:      0.00000000
  | K-point:       1 at    0.000000    0.000000    0.000000 (in units of recip. lattice)

  ESTIMATED overall HOMO-LUMO gap:      6.46856491 eV between HOMO at k-point 1 and LUMO at k-point 1
  The gap value is above 0.2 eV. Unless you are using a very sparse k-point grid,
  this system is most likely an insulator or a semiconductor.

  Total energy components:
  | Sum of eigenvalues            :         -42.49182933 Ha       -1156.26150596 eV
  | XC energy correction          :          -8.95410932 Ha        -243.65371149 eV
  | XC potential correction       :          11.50912272 Ha         313.17916363 eV
  | Free-atom electrostatic energy:         -36.30677335 Ha        -987.95756968 eV
  | Hartree energy correction     :          -0.14059880 Ha          -3.82588813 eV
  | Entropy correction            :           0.00000000 Ha           0.00000000 eV
  | ---------------------------
  | Total energy                  :         -76.38418808 Ha       -2078.51951163 eV
  | Total energy, T -> 0          :         -76.38418808 Ha       -2078.51951163 eV  <-- do not rely on this value for anything but (periodic) metals
  | Electronic free energy        :         -76.38418808 Ha       -2078.51951163 eV

  Derived energy quantities:
  | Kinetic energy                :          75.54168797 Ha        2055.59391711 eV
  | Electrostatic energy          :        -142.97176673 Ha       -3890.45971725 eV
  | Energy correction for multipole
  | error in Hartree potential    :          -0.00006899 Ha          -0.00187728 eV
  | Sum of eigenvalues per atom                           :        -385.42050199 eV
  | Total energy (T->0) per atom                          :        -692.83983721 eV  <-- do not rely on this value for anything but (periodic) metals
  | Electronic free energy per atom                       :        -692.83983721 eV
  Evaluating new KS density using the density matrix
  Evaluating density matrix
  Finished density matrix calculation
  | Time :     0.000 s
  Time summed over all CPUs for getting density from density matrix: real work        2.071 s, elapsed        2.154 s
  Integration grid: deviation in total charge (<rho> - N_e) =   7.105427E-15

  Self-consistency convergence accuracy:
  | Change of charge density      :  0.2822E+00
  | Change of unmixed KS density  :  0.9085E+01
  | Change of sum of eigenvalues  :  0.4018E+01 eV
  | Change of total energy        :  0.3272E+00 eV


------------------------------------------------------------
  End self-consistency iteration #     1       :  max(cpu_time)    wall_clock(cpu1)
  | Time for this iteration                     :        0.488 s           0.487 s
  | Charge density update                       :        0.140 s           0.137 s
  | Density mixing & preconditioning            :        0.076 s           0.073 s
  | Hartree multipole update                    :        0.004 s           0.004 s
  | Hartree multipole summation                 :        0.188 s           0.186 s
  | Integration                                 :        0.072 s           0.073 s
  | Solution of K.-S. eqns.                     :        0.008 s           0.006 s
  | Total energy evaluation                     :        0.008 s           0.002 s

  Partial memory accounting:
  | Current value for overall tracked memory usage:
  |   Minimum:        0.718 MB (on task  5)
  |   Maximum:        0.722 MB (on task  0)
  |   Average:        0.719 MB
  | Peak value for overall tracked memory usage:
  |   Minimum:        4.245 MB (on task 11 after allocating gradient_basis_wave)
  |   Maximum:        5.274 MB (on task  0 after allocating gradient_basis_wave)
  |   Average:        4.799 MB
  | Largest tracked array allocation so far:
  |   Minimum:        1.293 MB (gradient_basis_wave on task 11)
  |   Maximum:        1.577 MB (gradient_basis_wave on task  0)
  |   Average:        1.448 MB
  Note:  These values currently only include a subset of arrays which are explicitly tracked.
  The "true" memory usage will be greater.
------------------------------------------------------------

------------------------------------------------------------
          Begin self-consistency iteration #    2

  Date     :  20221003, Time     :  095450.912
------------------------------------------------------------
  Pulay mixing of updated and previous charge densities.
  Renormalizing the density to the exact electron count on the 3D integration grid.
  | Formal number of electrons (from input files) :      10.0000000000
  | Integrated number of electrons on 3D grid     :       9.9973747873
  | Charge integration error                      :      -0.0026252127
  | Normalization factor for density and gradient :       1.0002625902

  Evaluating partitioned Hartree potential by multipole expansion.
  | Original multipole sum: apparent total charge =   0.564518E-14
  | Sum of charges compensated after spline to logarithmic grids =   0.939598E-06
  | Analytical far-field extrapolation by fixed multipoles:
  | Hartree multipole sum: apparent total charge =   0.557139E-14
  Summing up the Hartree potential.
  Time summed over all CPUs for potential: real work        2.836 s, elapsed        3.146 s
  | RMS charge density error from multipole expansion :   0.655474E-03
  | Average real-space part of the electrostatic potential :      0.06489212 eV

  Integrating Hamiltonian matrix: batch-based integration.
  Time summed over all CPUs for integration: real work        1.115 s, elapsed        1.147 s

  Updating Kohn-Sham eigenvalues and eigenvectors using ELSI and the ELPA eigensolver.
  Starting ELPA eigensolver
  Finished transformation to standard eigenproblem
  | Time :     0.001 s
  Finished solving standard eigenproblem
  | Time :     0.004 s
  Finished back-transformation of eigenvectors
  | Time :     0.001 s

  Obtaining occupation numbers and electronic chemical potential using ELSI.
  | Note that, for insulating systems, the printed 'chemical potential' value is not uniquely defined.
  | It can be anywhere in the energy gap, as long as it correctly separates occupied and unoccupied states.
  | In systems with a gap, the physically relevant chemical potential is the VBM or HOMO.

  | Chemical potential (Fermi level):    -5.84872527 eV
  Highest occupied state (VBM) at     -7.96951922 eV (relative to internal zero)
  | Occupation number:      2.00000000
  | K-point:       1 at    0.000000    0.000000    0.000000 (in units of recip. lattice)

  Lowest unoccupied state (CBM) at    -3.49671740 eV (relative to internal zero)
  | Occupation number:      0.00000000
  | K-point:       1 at    0.000000    0.000000    0.000000 (in units of recip. lattice)

  ESTIMATED overall HOMO-LUMO gap:      4.47280182 eV between HOMO at k-point 1 and LUMO at k-point 1
  The gap value is above 0.2 eV. Unless you are using a very sparse k-point grid,
  this system is most likely an insulator or a semiconductor.

  Checking to see if s.c.f. parameters should be adjusted.
  The system likely has a gap. Increased the default Pulay mixing parameter (charge_mix_param). Value:   0.200000 .
  Kept the default occupation width. Value:   0.010000 eV.

  Total energy components:
  | Sum of eigenvalues            :         -41.56540824 Ha       -1131.05230549 eV
  | XC energy correction          :          -9.06129339 Ha        -246.57033861 eV
  | XC potential correction       :          11.64912201 Ha         316.98873811 eV
  | Free-atom electrostatic energy:         -36.30677335 Ha        -987.95756968 eV
  | Hartree energy correction     :          -1.05728154 Ha         -28.77009449 eV
  | Entropy correction            :           0.00000000 Ha           0.00000000 eV
  | ---------------------------
  | Total energy                  :         -76.34163452 Ha       -2077.36157016 eV
  | Total energy, T -> 0          :         -76.34163452 Ha       -2077.36157016 eV  <-- do not rely on this value for anything but (periodic) metals
  | Electronic free energy        :         -76.34163452 Ha       -2077.36157016 eV

  Derived energy quantities:
  | Kinetic energy                :          76.09538249 Ha        2070.66071159 eV
  | Electrostatic energy          :        -143.37572361 Ha       -3901.45194313 eV
  | Energy correction for multipole
  | error in Hartree potential    :          -0.00055261 Ha          -0.01503715 eV
  | Sum of eigenvalues per atom                           :        -377.01743516 eV
  | Total energy (T->0) per atom                          :        -692.45385672 eV  <-- do not rely on this value for anything but (periodic) metals
  | Electronic free energy per atom                       :        -692.45385672 eV
  Evaluating new KS density using the density matrix
  Evaluating density matrix
  Finished density matrix calculation
  | Time :     0.000 s
  Time summed over all CPUs for getting density from density matrix: real work        2.048 s, elapsed        2.115 s
  Integration grid: deviation in total charge (<rho> - N_e) =  -1.776357E-15

  Self-consistency convergence accuracy:
  | Change of charge density      :  0.2521E+00
  | Change of unmixed KS density  :  0.2552E-01
  | Change of sum of eigenvalues  :  0.2521E+02 eV
  | Change of total energy        :  0.1158E+01 eV


------------------------------------------------------------
  End self-consistency iteration #     2       :  max(cpu_time)    wall_clock(cpu1)
  | Time for this iteration                     :        0.556 s           0.553 s
  | Charge density update                       :        0.136 s           0.135 s
  | Density mixing & preconditioning            :        0.080 s           0.076 s
  | Hartree multipole update                    :        0.028 s           0.027 s
  | Hartree multipole summation                 :        0.232 s           0.232 s
  | Integration                                 :        0.076 s           0.073 s
  | Solution of K.-S. eqns.                     :        0.008 s           0.007 s
  | Total energy evaluation                     :        0.004 s           0.002 s

  Partial memory accounting:
  | Current value for overall tracked memory usage:
  |   Minimum:        0.718 MB (on task  5)
  |   Maximum:        0.723 MB (on task  0)
  |   Average:        0.719 MB
  | Peak value for overall tracked memory usage:
  |   Minimum:        4.245 MB (on task 11 after allocating gradient_basis_wave)
  |   Maximum:        5.275 MB (on task  0 after allocating gradient_basis_wave)
  |   Average:        4.800 MB
  | Largest tracked array allocation so far:
  |   Minimum:        1.293 MB (gradient_basis_wave on task 11)
  |   Maximum:        1.577 MB (gradient_basis_wave on task  0)
  |   Average:        1.448 MB
  Note:  These values currently only include a subset of arrays which are explicitly tracked.
  The "true" memory usage will be greater.
------------------------------------------------------------

------------------------------------------------------------
          Begin self-consistency iteration #    3

  Date     :  20221003, Time     :  095451.469
------------------------------------------------------------
  Pulay mixing of updated and previous charge densities.
  Renormalizing the density to the exact electron count on the 3D integration grid.
  | Formal number of electrons (from input files) :      10.0000000000
  | Integrated number of electrons on 3D grid     :       9.9989289711
  | Charge integration error                      :      -0.0010710289
  | Normalization factor for density and gradient :       1.0001071144

  Evaluating partitioned Hartree potential by multipole expansion.
  | Original multipole sum: apparent total charge =   0.115486E-13
  | Sum of charges compensated after spline to logarithmic grids =   0.786027E-06
  | Analytical far-field extrapolation by fixed multipoles:
  | Hartree multipole sum: apparent total charge =   0.115609E-13
  Summing up the Hartree potential.
  Time summed over all CPUs for potential: real work        2.874 s, elapsed        3.200 s
  | RMS charge density error from multipole expansion :   0.120794E-02
  | Average real-space part of the electrostatic potential :      0.08240244 eV

  Integrating Hamiltonian matrix: batch-based integration.
  Time summed over all CPUs for integration: real work        1.082 s, elapsed        1.105 s

  Updating Kohn-Sham eigenvalues and eigenvectors using ELSI and the ELPA eigensolver.
  Starting ELPA eigensolver
  Finished transformation to standard eigenproblem
  | Time :     0.001 s
  Finished solving standard eigenproblem
  | Time :     0.004 s
  Finished back-transformation of eigenvectors
  | Time :     0.000 s

  Obtaining occupation numbers and electronic chemical potential using ELSI.
  | Note that, for insulating systems, the printed 'chemical potential' value is not uniquely defined.
  | It can be anywhere in the energy gap, as long as it correctly separates occupied and unoccupied states.
  | In systems with a gap, the physically relevant chemical potential is the VBM or HOMO.

  | Chemical potential (Fermi level):    -3.93471198 eV
  Highest occupied state (VBM) at     -8.48555393 eV (relative to internal zero)
  | Occupation number:      2.00000000
  | K-point:       1 at    0.000000    0.000000    0.000000 (in units of recip. lattice)

  Lowest unoccupied state (CBM) at    -3.56802985 eV (relative to internal zero)
  | Occupation number:      0.00000000
  | K-point:       1 at    0.000000    0.000000    0.000000 (in units of recip. lattice)

  ESTIMATED overall HOMO-LUMO gap:      4.91752408 eV between HOMO at k-point 1 and LUMO at k-point 1
  The gap value is above 0.2 eV. Unless you are using a very sparse k-point grid,
  this system is most likely an insulator or a semiconductor.

  Total energy components:
  | Sum of eigenvalues            :         -41.86184618 Ha       -1139.11879235 eV
  | XC energy correction          :          -9.02620151 Ha        -245.61543988 eV
  | XC potential correction       :          11.60383949 Ha         315.75653800 eV
  | Free-atom electrostatic energy:         -36.30677335 Ha        -987.95756968 eV
  | Hartree energy correction     :          -0.75472044 Ha         -20.53698809 eV
  | Entropy correction            :           0.00000000 Ha           0.00000000 eV
  | ---------------------------
  | Total energy                  :         -76.34570200 Ha       -2077.47225199 eV
  | Total energy, T -> 0          :         -76.34570200 Ha       -2077.47225199 eV  <-- do not rely on this value for anything but (periodic) metals
  | Electronic free energy        :         -76.34570200 Ha       -2077.47225199 eV

  Derived energy quantities:
  | Kinetic energy                :          75.69784239 Ha        2059.84309517 eV
  | Electrostatic energy          :        -143.01734288 Ha       -3891.69990729 eV
  | Energy correction for multipole
  | error in Hartree potential    :          -0.00064413 Ha          -0.01752773 eV
  | Sum of eigenvalues per atom                           :        -379.70626412 eV
  | Total energy (T->0) per atom                          :        -692.49075066 eV  <-- do not rely on this value for anything but (periodic) metals
  | Electronic free energy per atom                       :        -692.49075066 eV
  Evaluating new KS density using the density matrix
  Evaluating density matrix
  Finished density matrix calculation
  | Time :     0.000 s
  Time summed over all CPUs for getting density from density matrix: real work        2.065 s, elapsed        2.139 s
  Integration grid: deviation in total charge (<rho> - N_e) =   0.000000E+00

  Self-consistency convergence accuracy:
  | Change of charge density      :  0.1228E+00
  | Change of unmixed KS density  :  0.1712E+00
  | Change of sum of eigenvalues  : -0.8066E+01 eV
  | Change of total energy        : -0.1107E+00 eV


------------------------------------------------------------
  End self-consistency iteration #     3       :  max(cpu_time)    wall_clock(cpu1)
  | Time for this iteration                     :        0.512 s           0.510 s
  | Charge density update                       :        0.140 s           0.136 s
  | Density mixing & preconditioning            :        0.080 s           0.076 s
  | Hartree multipole update                    :        0.004 s           0.004 s
  | Hartree multipole summation                 :        0.216 s           0.213 s
  | Integration                                 :        0.072 s           0.071 s
  | Solution of K.-S. eqns.                     :        0.008 s           0.007 s
  | Total energy evaluation                     :        0.004 s           0.002 s

  Partial memory accounting:
  | Current value for overall tracked memory usage:
  |   Minimum:        0.718 MB (on task  5)
  |   Maximum:        0.723 MB (on task  0)
  |   Average:        0.719 MB
  | Peak value for overall tracked memory usage:
  |   Minimum:        4.245 MB (on task 11 after allocating gradient_basis_wave)
  |   Maximum:        5.275 MB (on task  0 after allocating gradient_basis_wave)
  |   Average:        4.800 MB
  | Largest tracked array allocation so far:
  |   Minimum:        1.293 MB (gradient_basis_wave on task 11)
  |   Maximum:        1.577 MB (gradient_basis_wave on task  0)
  |   Average:        1.448 MB
  Note:  These values currently only include a subset of arrays which are explicitly tracked.
  The "true" memory usage will be greater.
------------------------------------------------------------

------------------------------------------------------------
          Begin self-consistency iteration #    4

  Date     :  20221003, Time     :  095451.981
------------------------------------------------------------
  Pulay mixing of updated and previous charge densities.
  Renormalizing the density to the exact electron count on the 3D integration grid.
  | Formal number of electrons (from input files) :      10.0000000000
  | Integrated number of electrons on 3D grid     :       9.9972187328
  | Charge integration error                      :      -0.0027812672
  | Normalization factor for density and gradient :       1.0002782041

  Evaluating partitioned Hartree potential by multipole expansion.
  | Original multipole sum: apparent total charge =   0.558369E-14
  | Sum of charges compensated after spline to logarithmic grids =   0.119442E-05
  | Analytical far-field extrapolation by fixed multipoles:
  | Hartree multipole sum: apparent total charge =   0.533771E-14
  Summing up the Hartree potential.
  Time summed over all CPUs for potential: real work        2.967 s, elapsed        3.309 s
  | RMS charge density error from multipole expansion :   0.203394E-02
  | Average real-space part of the electrostatic potential :      0.13400544 eV

  Integrating Hamiltonian matrix: batch-based integration.
  Time summed over all CPUs for integration: real work        1.083 s, elapsed        1.114 s

  Updating Kohn-Sham eigenvalues and eigenvectors using ELSI and the ELPA eigensolver.
  Starting ELPA eigensolver
  Finished transformation to standard eigenproblem
  | Time :     0.001 s
  Finished solving standard eigenproblem
  | Time :     0.004 s
  Finished back-transformation of eigenvectors
  | Time :     0.001 s

  Obtaining occupation numbers and electronic chemical potential using ELSI.
  | Note that, for insulating systems, the printed 'chemical potential' value is not uniquely defined.
  | It can be anywhere in the energy gap, as long as it correctly separates occupied and unoccupied states.
  | In systems with a gap, the physically relevant chemical potential is the VBM or HOMO.

  | Chemical potential (Fermi level):    -5.95884081 eV
  Highest occupied state (VBM) at     -7.38847997 eV (relative to internal zero)
  | Occupation number:      2.00000000
  | K-point:       1 at    0.000000    0.000000    0.000000 (in units of recip. lattice)

  Lowest unoccupied state (CBM) at    -3.36876646 eV (relative to internal zero)
  | Occupation number:      0.00000000
  | K-point:       1 at    0.000000    0.000000    0.000000 (in units of recip. lattice)

  ESTIMATED overall HOMO-LUMO gap:      4.01971351 eV between HOMO at k-point 1 and LUMO at k-point 1
  The gap value is above 0.2 eV. Unless you are using a very sparse k-point grid,
  this system is most likely an insulator or a semiconductor.

  Total energy components:
  | Sum of eigenvalues            :         -41.49698786 Ha       -1129.19049225 eV
  | XC energy correction          :          -9.07411356 Ha        -246.91919305 eV
  | XC potential correction       :          11.66694682 Ha         317.47377576 eV
  | Free-atom electrostatic energy:         -36.30677335 Ha        -987.95756968 eV
  | Hartree energy correction     :          -1.12564516 Ha         -30.63036339 eV
  | Entropy correction            :           0.00000000 Ha           0.00000000 eV
  | ---------------------------
  | Total energy                  :         -76.33657312 Ha       -2077.22384261 eV
  | Total energy, T -> 0          :         -76.33657312 Ha       -2077.22384261 eV  <-- do not rely on this value for anything but (periodic) metals
  | Electronic free energy        :         -76.33657312 Ha       -2077.22384261 eV

  Derived energy quantities:
  | Kinetic energy                :          75.70399872 Ha        2060.01061730 eV
  | Electrostatic energy          :        -142.96645828 Ha       -3890.31526686 eV
  | Energy correction for multipole
  | error in Hartree potential    :          -0.00107650 Ha          -0.02929293 eV
  | Sum of eigenvalues per atom                           :        -376.39683075 eV
  | Total energy (T->0) per atom                          :        -692.40794754 eV  <-- do not rely on this value for anything but (periodic) metals
  | Electronic free energy per atom                       :        -692.40794754 eV
  Evaluating new KS density using the density matrix
  Evaluating density matrix
  Finished density matrix calculation
  | Time :     0.000 s
  Time summed over all CPUs for getting density from density matrix: real work        2.060 s, elapsed        2.132 s
  Integration grid: deviation in total charge (<rho> - N_e) =   3.552714E-15

  Self-consistency convergence accuracy:
  | Change of charge density      :  0.1100E+00
  | Change of unmixed KS density  :  0.6914E-01
  | Change of sum of eigenvalues  :  0.9928E+01 eV
  | Change of total energy        :  0.2484E+00 eV


------------------------------------------------------------
  End self-consistency iteration #     4       :  max(cpu_time)    wall_clock(cpu1)
  | Time for this iteration                     :        0.520 s           0.518 s
  | Charge density update                       :        0.136 s           0.136 s
  | Density mixing & preconditioning            :        0.080 s           0.078 s
  | Hartree multipole update                    :        0.004 s           0.003 s
[...]
  0.000000000000000E+000  0.000000000000000E+000  0.000000000000000E+000
 FOU  1.078956894910766E-009  1.053561045593310E-007  5.281097261885275E-004
  2.719355637846041E-004 -4.754709044488852E-003 -9.131123619335464E-007
 -6.142343010916784E-009  2.697796485696358E-007 -3.948056604723580E-004
 FOU -7.218123181243883E-006 -3.905726735762072E-008 -1.895756121267503E-008
  4.752239387423092E-002  5.970747230965517E-006 -5.687939334506527E-008
  8.758967293481257E-005  4.250181443900720E-003 -3.832113748640526E-003
 FOU  0.000000000000000E+000  0.000000000000000E+000  0.000000000000000E+000
  0.000000000000000E+000  0.000000000000000E+000  0.000000000000000E+000
  0.000000000000000E+000  0.000000000000000E+000  0.000000000000000E+000
  0.000000000000000E+000  0.000000000000000E+000  0.000000000000000E+000
 -5.221694519207732E-009 -1.698798579106190E-008  1.158255579040723E-003
  0.000000000000000E+000  0.000000000000000E+000  0.000000000000000E+000
  0.000000000000000E+000  0.000000000000000E+000  0.000000000000000E+000
  0.000000000000000E+000  0.000000000000000E+000  0.000000000000000E+000
 -8.444935706859439E-004  9.381595200243644E-003  6.679130221017194E-006
  0.000000000000000E+000  0.000000000000000E+000  0.000000000000000E+000
  0.000000000000000E+000  0.000000000000000E+000  0.000000000000000E+000
  End CPSCF iteration #     5                  :  max(cpu_time)    wall_clock(cpu1)
  | Time for this iteration                     :        1.344 s           1.342 s
  | first_order_DM                              :        0.004 s           0.003 s
  | first_order_density                         :        0.148 s           0.147 s
  | first_order_potential                       :        0.252 s           0.249 s
  | first_order_H                               :        0.940 s           0.937 s
  | Solution of Sternheimer eqns.               :        0.004 s           0.003 s
------------------------------------------------------------

--------------------- CPSCF ---------------------------------------
          Begin CP-self-consistency iteration #    6

  Date     :  20221003, Time     :  095523.922
------------------------------------------------------------

  CPSCF convergence accuracy:
  | Change of first_order_density_matrix     :  0.4338E-03
  Integrating first_order_rho: batch-based integration.
  Time summed over all CPUs for integration: real work        2.051 s, elapsed        2.148 s

  Evaluating partitioned Hartree potential by multipole expansion.
  | Original multipole sum: apparent total charge =  -0.266885E-14
  | Sum of charges compensated after spline to logarithmic grids =   0.879162E-06
  | Analytical far-field extrapolation by fixed multipoles:
  | Hartree multipole sum: apparent total charge =  -0.335759E-14
  Summing up the Hartree potential.
  Time summed over all CPUs for potential: real work        3.671 s, elapsed        4.000 s
  | RMS delta_rho error from multipole expansion :   0.215479E-01

  Integrating first-order-Hamiltonian matrix: batch-based integration.
  Time summed over all CPUs for integration: real work       14.112 s, elapsed       15.065 s
 FOH -1.453846261989821E-008  1.132223238124172E-007  5.596838769705882E-005
 -6.805815649606179E-009  6.268005565979038E-007  1.453566052964060E-004
  1.597378347118656E-007 -1.155951018851231E-006 -5.773001528298767E-004
 FOH  4.869847271708396E-002 -1.022188693324001E-004 -1.358051835018756E-004
  0.000000000000000E+000  1.754733961116482E-002  6.330439052096757E-003
  0.000000000000000E+000  0.000000000000000E+000  4.164889985715033E-002
 FOH -7.136067372912444E-003 -2.453298944810256E-004  3.033939002488748E-008
  1.179227224841857E-003  5.168122433841486E-004 -6.383251562401878E-007
  7.049606774664684E-002  2.284835285514238E-003 -1.408511567408370E-007
 FOH  0.000000000000000E+000  0.000000000000000E+000  0.000000000000000E+000
  0.000000000000000E+000  0.000000000000000E+000  0.000000000000000E+000
  0.000000000000000E+000  0.000000000000000E+000  0.000000000000000E+000
 FOH -1.172777741348919E-005 -7.071661377874144E-008  3.129499885579994E-002
 -4.755885512416919E-008  3.813230245113849E-006 -1.764172454811766E-004
 -3.030622764366690E-004  7.461685572548129E-003 -6.887496081150929E-008
 FOH  0.000000000000000E+000  0.000000000000000E+000  0.000000000000000E+000
  0.000000000000000E+000  0.000000000000000E+000  0.000000000000000E+000
  0.000000000000000E+000  0.000000000000000E+000  0.000000000000000E+000
 FOH  3.220306395361458E-002 -3.684228342372256E-002  3.531643890916403E-006
  0.000000000000000E+000  2.862043541835919E-002  4.724020961794096E-009
  0.000000000000000E+000  0.000000000000000E+000  1.501289456745303E-002
 FOH -2.640766103567567E-003  4.087070243508948E-003 -1.739269572432150E-003
 -1.895059367399656E-003 -2.336640316197640E-003  6.421514565639316E-002
  8.694059367119138E-003 -1.010363645152644E-002 -3.511359518487901E-002
 FOH  2.881177832898569E-002  1.615648324961659E-002  4.806025544148873E-007
  0.000000000000000E+000  3.060006452950014E-002  3.121948282006316E-006
  0.000000000000000E+000  0.000000000000000E+000  3.109122539919896E-002
 FOH  0.000000000000000E+000  0.000000000000000E+000  0.000000000000000E+000
 FOH  0.000000000000000E+000  0.000000000000000E+000  0.000000000000000E+000
 FOH  0.000000000000000E+000  0.000000000000000E+000  0.000000000000000E+000
 FOH  0.000000000000000E+000  0.000000000000000E+000  0.000000000000000E+000
  0.000000000000000E+000  0.000000000000000E+000  0.000000000000000E+000
  0.000000000000000E+000  0.000000000000000E+000  0.000000000000000E+000
 FOH  4.920265878438692E-002 -2.041783106617574E-002  1.089940846491335E-003
  1.409003899273590E-003 -2.473427460516709E-003  8.453805462721587E-003
  7.853800136454861E-004 -2.374628769342992E-004  1.172456054620259E-002
  0.000000000000000E+000  0.000000000000000E+000  0.000000000000000E+000
  0.000000000000000E+000  0.000000000000000E+000  0.000000000000000E+000
 FOH -1.245766251942933E-003 -6.119449490844873E-004  2.456038683123763E-002
  1.189490024265759E-002 -4.769457418768015E-003  1.854157139099064E-003
  1.034793800949992E-003  5.340510555248212E-004 -2.164875110669373E-002
 FOH -4.396534731328848E-003 -1.326241471025239E-003 -6.284508132590891E-003
  0.000000000000000E+000 -4.395852986249168E-003  1.368482091184947E-002
  0.000000000000000E+000  0.000000000000000E+000  0.000000000000000E+000
  0.000000000000000E+000  0.000000000000000E+000  0.000000000000000E+000
  0.000000000000000E+000  0.000000000000000E+000 -4.812609409901270E-003
  0.000000000000000E+000  0.000000000000000E+000  0.000000000000000E+000
  0.000000000000000E+000  0.000000000000000E+000  0.000000000000000E+000
 FOU -1.706430891042080E-006  5.245594998523453E-009  8.446211462095066E-004
  3.085163931673166E-004  1.507181000282696E-008 -9.388274525945657E-003
 FOU  0.000000000000000E+000  0.000000000000000E+000  0.000000000000000E+000
  0.000000000000000E+000  0.000000000000000E+000  0.000000000000000E+000
  0.000000000000000E+000  0.000000000000000E+000  0.000000000000000E+000
 FOU -7.267793414858169E-006 -3.872442136296254E-008 -1.872180979987411E-008
  4.753729600981775E-002  5.974011304427174E-006 -5.715116943648016E-008
  8.759193184842424E-005  4.250828940142096E-003 -3.835739273054212E-003
 FOU -1.133072303797530E-009 -2.720344133473955E-004  6.862145542134581E-009
 -1.057215061983319E-007  4.756678493252832E-003 -2.667850739039228E-007
 -5.281164730624107E-004  9.099657106926130E-007  3.948003898974733E-004
 FOU  0.000000000000000E+000  0.000000000000000E+000  0.000000000000000E+000
 FOU  7.268158887966407E-006 -4.753770539754588E-002 -8.759097697800561E-005
  3.872371754272003E-008 -5.973677543133687E-006 -4.251216160024275E-003
  1.872202125257306E-008  5.733271700159481E-008  3.835705196868347E-003
 FOU  0.000000000000000E+000  0.000000000000000E+000  0.000000000000000E+000
  0.000000000000000E+000  0.000000000000000E+000  0.000000000000000E+000
  0.000000000000000E+000  0.000000000000000E+000  0.000000000000000E+000
 FOU  0.000000000000000E+000  0.000000000000000E+000  0.000000000000000E+000
  0.000000000000000E+000  0.000000000000000E+000  0.000000000000000E+000
  0.000000000000000E+000  0.000000000000000E+000  0.000000000000000E+000
 FOU  0.000000000000000E+000  0.000000000000000E+000  0.000000000000000E+000
  0.000000000000000E+000  0.000000000000000E+000  0.000000000000000E+000
  0.000000000000000E+000  0.000000000000000E+000  0.000000000000000E+000
 FOU  1.706473860696515E-006 -3.085195376723702E-004  1.039710910959746E-007
 FOU  0.000000000000000E+000  0.000000000000000E+000  0.000000000000000E+000
 FOU  0.000000000000000E+000  0.000000000000000E+000  0.000000000000000E+000
 -1.040400547290976E-007 -1.159293271231028E-003 -6.676307317727618E-006
 FOU  1.133457953210994E-009  1.057466021061292E-007  5.281187375878378E-004
  2.720347542399223E-004 -4.756717547277348E-003 -9.100162595862461E-007
 -6.866545028904073E-009  2.667998514953616E-007 -3.948068573202032E-004
 FOU  0.000000000000000E+000  0.000000000000000E+000  0.000000000000000E+000
  0.000000000000000E+000  0.000000000000000E+000  0.000000000000000E+000
  0.000000000000000E+000  0.000000000000000E+000  0.000000000000000E+000
 FOU  0.000000000000000E+000  0.000000000000000E+000  0.000000000000000E+000
  0.000000000000000E+000  0.000000000000000E+000  0.000000000000000E+000
  0.000000000000000E+000  0.000000000000000E+000  0.000000000000000E+000
 FOU  0.000000000000000E+000  0.000000000000000E+000  0.000000000000000E+000
  0.000000000000000E+000  0.000000000000000E+000  0.000000000000000E+000
  0.000000000000000E+000  0.000000000000000E+000  0.000000000000000E+000
 -5.246076323378253E-009 -1.505471696103159E-008  1.159278534051411E-003
  0.000000000000000E+000  0.000000000000000E+000  0.000000000000000E+000
  0.000000000000000E+000  0.000000000000000E+000  0.000000000000000E+000
  0.000000000000000E+000  0.000000000000000E+000  0.000000000000000E+000
 -8.446211652336695E-004  9.388277651537859E-003  6.676415002339617E-006
  0.000000000000000E+000  0.000000000000000E+000  0.000000000000000E+000
  0.000000000000000E+000  0.000000000000000E+000  0.000000000000000E+000
  0.000000000000000E+000  0.000000000000000E+000  0.000000000000000E+000

  CP-self-consistency cycle converged.

  End CPSCF iteration #     6                  :  max(cpu_time)    wall_clock(cpu1)
  | Time for this iteration                     :        1.356 s           1.354 s
  | first_order_DM                              :        0.004 s           0.003 s
  | first_order_density                         :        0.136 s           0.135 s
  | first_order_potential                       :        0.268 s           0.266 s
  | first_order_H                               :        0.944 s           0.943 s
  | Solution of Sternheimer eqns.               :        0.004 s           0.003 s
------------------------------------------------------------
dP_dE (Bohr^3) at every cycle:--->
 (16.5480234914964,0.000000000000000E+000) (2.288797587706108E-003,0.000000000000000E+000) (-0.284806694336227,0.000000000000000E+000)
 (2.272544995856452E-003,0.000000000000000E+000) (18.5240633150565,0.000000000000000E+000) (1.138122806011147E-004,0.000000000000000E+000)
 (-0.284816221995782,0.000000000000000E+000) (1.131263546705615E-004,0.000000000000000E+000) (19.3778088437529,0.000000000000000E+000)
DFPT polarizability (Bohr^3)        xx        yy        zz        xy        xz        yz
  | Polarizability:--->                        16.548023491                   18.524063315                   19.377808844                    0.002288798                   -0.284806694                    0.000113812

DFPT for dielectric_constant:--->  # PARSE DFPT_dielectric_tensor
               1.246518420485658             0.000034096565455            -0.004242808602948
               0.000033854448125             1.275955786003729             0.000001695478838
              -0.004242950537940             0.000001685260495             1.288674162874482

                                               :  max(cpu_time)    wall_clock(cpu1)
  | Time for  dielectric calculation            :        0.000 s           0.000 s
===========================================================================

------------------------------------------------------------------------------
  Final output of selected total energy values:

  The following output summarizes some interesting total energy values
  at the end of a run (AFTER all relaxation, molecular dynamics, etc.).

  | Total energy of the DFT / Hartree-Fock s.c.f. calculation      :          -2077.200460591 eV
  | Final zero-broadening corrected energy (caution - metals only) :          -2077.200460591 eV
  | For reference only, the value of 1 Hartree used in FHI-aims is :             27.211384500 eV
  | For reference only, the overall average (free atom contribution
  | + realspace contribution) of the electrostatic potential after
  | s.c.f. convergence is                                          :             -1.136413614 eV

  Before relying on these values, please be sure to understand exactly which
  total energy value is referred to by a given number. Different objects may
  all carry the same name 'total energy'. Definitions:

  Total energy of the DFT / Hartree-Fock s.c.f. calculation:
  | Note that this energy does not include ANY quantities calculated after the
  | s.c.f. cycle, in particular not ANY RPA, MP2, etc. many-body perturbation terms.

  Final zero-broadening corrected energy:
  | For metallic systems only, a broadening of the occupation numbers at the Fermi
  | level can be extrapolated back to zero broadening by an electron-gas inspired
  | formula. For all systems that are not real metals, this value can be
  | meaningless and should be avoided.

------------------------------------------------------------------------------
  Methods described in the following list of references were used in this FHI-aims run.
  If you publish the results, please make sure to cite these reference if they apply.
  FHI-aims is an academic code, and for our developers (often, Ph.D. students
  and postdocs), scientific credit in the community is essential.
  Thank you for helping us!

  For any use of FHI-aims, please cite:

    Volker Blum, Ralf Gehrke, Felix Hanke, Paula Havu, Ville Havu,
    Xinguo Ren, Karsten Reuter, and Matthias Scheffler
    'Ab initio molecular simulations with numeric atom-centered orbitals'
    Computer Physics Communications 180, 2175-2196 (2009)
    http://doi.org/10.1016/j.cpc.2009.06.022


  The provided symmetry information was generated with SPGlib:

    Atsushi Togo, Yusuke Seto, Dimitar Pashov
    SPGlib 1.7.3 obtained from http://spglib.sourceforge.net
    Copyright (C) 2008 Atsushi Togo


  The DFPT (perturbation by an electric field) part of the code was used.
  Here is the corresponding reference:

    Honghui Shang, Nathaniel Raimbault, Mariana Rossi,
    Christian Carbogno, Patrick Rinke and Matthias Scheffler,
    'All-Electron, Real-Space Perturbation Theory for Homogeneous
    Electric Fields: Theory, Implementation, and Application within dft'
    New Journal of Physics, 20(7):073040, 2018


  The ELSI infrastructure was used in your run to solve the Kohn-Sham electronic structure.
  Please check out http://elsi-interchange.org to learn more.
  If scalability is important for your project, please acknowledge ELSI by citing:

    V. W-z. Yu, F. Corsetti, A. Garcia, W. P. Huhn, M. Jacquelin, W. Jia,
    B. Lange, L. Lin, J. Lu, W. Mi, A. Seifitokaldani, A. Vazquez-Mayagoitia,
    C. Yang, H. Yang, and V. Blum
    'ELSI: A unified software interface for Kohn-Sham electronic structure solvers'
    Computer Physics Communications 222, 267-285 (2018).
    http://doi.org/10.1016/j.cpc.2017.09.007


  For the real-space grid partitioning and parallelization used in this calculation, please cite:

    Ville Havu, Volker Blum, Paula Havu, and Matthias Scheffler,
    'Efficient O(N) integration for all-electron electronic structure calculation'
    'using numerically tabulated basis functions'
    Journal of Computational Physics 228, 8367-8379 (2009).
    http://doi.org/10.1016/j.jcp.2009.08.008

  Of course, there are many other important community references, e.g., those cited in the
  above references. Our list is limited to references that describe implementations in the
  FHI-aims code. The reason is purely practical (length of this list) - please credit others as well.

------------------------------------------------------------
          Leaving FHI-aims.
          Date     :  20221003, Time     :  095525.284

          Computational steps:
          | Number of self-consistency cycles          :           34
          | Number of SCF (re)initializations          :            1
          | Number of coupled perturbed self-consistency cycles          :            0
          | Number of CPSCF (re)initializations          :            0

          Detailed time accounting                     :  max(cpu_time)    wall_clock(cpu1)
          | Total time                                  :       35.520 s          35.555 s
          | Preparation time                            :        0.136 s           0.141 s
          | Boundary condition initalization            :        0.048 s           0.046 s
          | Grid partitioning                           :        0.032 s           0.030 s
          | Preloading free-atom quantities on grid     :        0.084 s           0.080 s
          | Free-atom superposition energy              :        0.012 s           0.011 s
          | Total time for integrations                 :        1.268 s           1.248 s
          | Total time for solution of K.-S. equations  :        0.160 s           0.141 s
          | Total time for density update               :        2.016 s           1.989 s
          | Total time for mixing & preconditioning     :        1.160 s           1.130 s
          | Total time for Hartree multipole update     :        0.080 s           0.071 s
          | Total time for Hartree multipole sum        :        2.972 s           2.938 s
          | Total time for total energy evaluation      :        0.060 s           0.024 s
          | Total time first_order_DM                   :        0.080 s           0.063 s
          | Total time first_order_density              :        2.800 s           2.768 s
          | Total time first_order_potential            :        4.924 s           4.895 s
          | Total time first_order_H                    :       18.892 s          18.849 s
          | Total time solving of Sternheimer equations :        0.080 s           0.055 s
          | Total time for dielectric constant          :        0.000 s           0.000 s
          | Total time momentum matrix                  :        0.000 s           0.000 s

          Partial memory accounting:
          | Residual value for overall tracked memory usage across tasks:     0.000000 MB (should be 0.000000 MB)
          | Peak values for overall tracked memory usage:
          |   Minimum:        9.253 MB (on task  5 after allocating DFPT_pulay_mixing::pulay_mix::alphas)
          |   Maximum:        9.258 MB (on task  0 after allocating DFPT_pulay_mixing::pulay_mix::alphas)
          |   Average:        9.254 MB
          | Largest tracked array allocation:
          |   Minimum:        3.319 MB (DFPT_pulay_mixing::initialize_pulay_mixing::X_in_diffs on task  0)
          |   Maximum:        3.319 MB (DFPT_pulay_mixing::initialize_pulay_mixing::X_in_diffs on task  0)
          |   Average:        3.319 MB
          Note:  These values currently only include a subset of arrays which are explicitly tracked.
          The "true" memory usage will be greater.

          Have a nice day.
------------------------------------------------------------
