------------------------------------------------------------
          Invoking FHI-aims ...

          When using FHI-aims, please cite the following reference:

            Volker Blum, Ralf Gehrke, Felix Hanke, Paula Havu,
            Ville Havu, Xinguo Ren, Karsten Reuter, and Matthias Scheffler,
            'Ab Initio Molecular Simulations with Numeric Atom-Centered Orbitals',
            Computer Physics Communications 180, 2175-2196 (2009)

          In addition, many other developments in FHI-aims are likely important for
          your particular application. A partial list of references is given at the end of
          this file. Thank you for giving credit to the authors of these developments.

          For any questions about FHI-aims, please visit our slack channel at

            https://fhi-aims.slack.com

          and our main development and support site at

            https://aims-git.rz-berlin.mpg.de .

          The latter site, in particular, has a wiki to collect information, as well
          as an issue tracker to log discussions, suggest improvements, and report issues
          or bugs. https://aims-git.rz-berlin.mpg.de is also the main development site
          of the project and all new and updated code versions can be obtained there.
          Please send an email to aims-coordinators@fhi-berlin.mpg.de and we will add
          you to these sites. They are for you and everyone is welcome there.

------------------------------------------------------------



  Date     :  20221003, Time     :  094452.531
  Time zero on CPU 1             :   0.400000000000000E-01  s.
  Internal wall clock time zero  :           434022292.531  s.

  FHI-aims created a unique identifier for this run for later identification
  aims_uuid : 99180B5A-44E1-4B33-AAE0-A6D61028AC77

  Build configuration of the current instance of FHI-aims
  -------------------------------------------------------
  FHI-aims version      : 220810
  Commit number         : eae8be818
  CMake host system     : Linux-4.9.0-16-amd64
  CMake version         : 3.17.3
  Fortran compiler      : /opt/easybuild/software/impi/2017.3.196-iccifort-2017.4.196-GCC-6.4.0-2.28/bin64/mpiifort (Intel) version 17.0.4.20170411
  Fortran compiler flags: -O3 -ip -fp-model precise
  C compiler            : /opt/easybuild/software/icc/2017.4.196-GCC-6.4.0-2.28/compilers_and_libraries_2017.4.196/linux/bin/intel64/icc (Intel) version 17.0.4.20170411
  C compiler flags      : -O3 -ip -fp-model precise -std=gnu99
  Using MPI
  Using ScaLAPACK
  Using LibXC
  Using i-PI
  Using RLSY
  Linking against: /opt/easybuild/software/imkl/2017.3.196-iimpi-2017b/mkl/lib/intel64/libmkl_intel_lp64.so
                   /opt/easybuild/software/imkl/2017.3.196-iimpi-2017b/mkl/lib/intel64/libmkl_sequential.so
                   /opt/easybuild/software/imkl/2017.3.196-iimpi-2017b/mkl/lib/intel64/libmkl_core.so
                   /opt/easybuild/software/imkl/2017.3.196-iimpi-2017b/mkl/lib/intel64/libmkl_blacs_intelmpi_lp64.so
                   /opt/easybuild/software/imkl/2017.3.196-iimpi-2017b/mkl/lib/intel64/libmkl_scalapack_lp64.so

  Using       16 parallel tasks.
  Task        0 on host mpsd-hpc-ibm-056 reporting.
  Task        1 on host mpsd-hpc-ibm-056 reporting.
  Task        2 on host mpsd-hpc-ibm-056 reporting.
  Task        3 on host mpsd-hpc-ibm-056 reporting.
  Task        4 on host mpsd-hpc-ibm-057 reporting.
  Task        5 on host mpsd-hpc-ibm-057 reporting.
  Task        6 on host mpsd-hpc-ibm-057 reporting.
  Task        7 on host mpsd-hpc-ibm-057 reporting.
  Task        8 on host mpsd-hpc-ibm-058 reporting.
  Task        9 on host mpsd-hpc-ibm-058 reporting.
  Task       10 on host mpsd-hpc-ibm-058 reporting.
  Task       11 on host mpsd-hpc-ibm-058 reporting.
  Task       12 on host mpsd-hpc-ibm-059 reporting.
  Task       13 on host mpsd-hpc-ibm-059 reporting.
  Task       14 on host mpsd-hpc-ibm-059 reporting.
  Task       15 on host mpsd-hpc-ibm-059 reporting.

  Performing system and environment tests:
  | Environment variable OMP_NUM_THREADS correctly set to 1.
  | Checking for ScaLAPACK...
  | Testing pdtran()...
  | All pdtran() tests passed.

  Obtaining array dimensions for all initial allocations:
  
  -----------------------------------------------------------------------
  Parsing control.in (first pass over file, find array dimensions only).
  The contents of control.in will be repeated verbatim below
  unless switched off by setting 'verbatim_writeout .false.' .
  in the first line of control.in .
  -----------------------------------------------------------------------
  
  #########################################################################################
  #
  #  Volker Blum, 2017 : Test run input file control.in for simple H2O
  #
  #########################################################################################
  #
  #  Physical model
  #
    xc                 pbe
    spin               none
    relativistic       none
    charge             0.
  
  #  ri_density_restart         write
  #  ri_rho1 write
  #  ri_full_output .True.
  #  ri_output_density_only .True.
    DFPT dielectric
    sc_accuracy_rho    1d-6
  #  use_calculate_fock_matrix_old .false.
  #  output cube total_density
    k_grid 1 1 1
    wave_threshold 1e-8
  
  # prodbas_threshold 1e-2
  #
  #  Relaxation
  #
  #  relax_geometry   bfgs 1.e-2
  #
  
  ################################################################################
  
  ################################################################################
  #
  #  FHI-aims code project
  #  VB, Fritz-Haber Institut, 2009
  #
  #  Suggested "light" defaults for O atom (to be pasted into control.in file)
  #  Be sure to double-check any results obtained with these settings for post-processing,
  #  e.g., with the "tight" defaults and larger basis sets.
  #
  ################################################################################
    species        O
  #     global species definitions
      nucleus             8
      mass                15.9994
  #
      l_hartree           6
  #
      cut_pot             4.0  2.0  1.0
      basis_dep_cutoff    1e-4
  #
      radial_base         36 7.0
      radial_multiplier   2
       angular_grids specified
        division   0.2659   50
        division   0.4451  110
        division   0.6052  194
        division   0.7543  302
        division   0.8014  434
  #      division   0.8507  590
  #      division   0.8762  770
  #      division   0.9023  974
  #      division   1.2339 1202
  #      outer_grid 974
        outer_grid 434
  ################################################################################
  #
  #  Definition of "minimal" basis
  #
  ################################################################################
  #     valence basis states
      valence      2  s   2.
      valence      2  p   4.
  #     ion occupancy
      ion_occ      2  s   1.
      ion_occ      2  p   3.
  ################################################################################
  #
  #  Suggested additional basis functions. For production calculations,
  #  uncomment them one after another (the most important basis functions are
  #  listed first).
  #
  #
  ################################################################################
  #  "First tier" - improvements: -699.05 meV to -159.38 meV
       hydro 2 p 1.8
       hydro 3 d 7.6
       hydro 3 s 6.4
  #  "Second tier" - improvements: -49.91 meV to -5.39 meV
       hydro 4 f 11.6
       hydro 3 p 6.2
       hydro 3 d 5.6
       hydro 5 g 17.6
       hydro 1 s 0.75
  #  "Third tier" - improvements: -2.83 meV to -0.50 meV
  #     ionic 2 p auto
  #     hydro 4 f 10.8
  #     hydro 4 d 4.7
  #     hydro 2 s 6.8
  #  "Fourth tier" - improvements: -0.40 meV to -0.12 meV
  #     hydro 3 p 5
  #     hydro 3 s 3.3
  #     hydro 5 g 15.6
  #     hydro 4 f 17.6
  #     hydro 4 d 14
  # Further basis functions - -0.08 meV and below
  #     hydro 3 s 2.1
  #     hydro 4 d 11.6
  #     hydro 3 p 16
  #     hydro 2 s 17.2
  ################################################################################
  #
  #  FHI-aims code project
  #  VB, Fritz-Haber Institut, 2009
  #
  #  Suggested "light" defaults for H atom (to be pasted into control.in file)
  #  Be sure to double-check any results obtained with these settings for post-processing,
  #  e.g., with the "tight" defaults and larger basis sets.
  #
  ################################################################################
    species        H
  #     global species definitions
      nucleus             1
      mass                1.00794
  #
      l_hartree           6
  #
      cut_pot             4.0  2.0  1.0
      basis_dep_cutoff    1e-4
  #
      radial_base         24 7.0
      radial_multiplier   2
      angular_grids       specified
        division   0.2421   50
        division   0.3822  110
        division   0.4799  194
        division   0.5341  302
        division   0.5626  434
  #      division   0.5922  590
  #      division   0.6542  770
  #      division   0.6868 1202
  #      outer_grid  770
        outer_grid  434
  ################################################################################
  #
  #  Definition of "minimal" basis
  #
  ################################################################################
  #     valence basis states
      valence      1  s   1.
  #     ion occupancy
      ion_occ      1  s   0.5
  ################################################################################
  #
  #  Suggested additional basis functions. For production calculations,
  #  uncomment them one after another (the most important basis functions are
  #  listed first).
  #
  #  Basis constructed for dimers: 0.5 A, 0.7 A, 1.0 A, 1.5 A, 2.5 A
  #
  ################################################################################
  #  "First tier" - improvements: -1014.90 meV to -62.69 meV
       hydro 2 s 2.1
       hydro 2 p 3.5
  #  "Second tier" - improvements: -12.89 meV to -1.83 meV
      hydro 1 s 0.85
      hydro 2 p 3.7
      hydro 2 s 1.2
      hydro 3 d 7
  #  "Third tier" - improvements: -0.25 meV to -0.12 meV
  #    hydro 4 f 11.2
  #    hydro 3 p 4.8
  #    hydro 4 d 9
  #    hydro 3 s 3.2
  #
  
  
  -----------------------------------------------------------------------
  Completed first pass over input file control.in .
  -----------------------------------------------------------------------
  
  
  -----------------------------------------------------------------------
  Parsing geometry.in (first pass over file, find array dimensions only).
  The contents of geometry.in will be repeated verbatim below
  unless switched off by setting 'verbatim_writeout .false.' .
  in the first line of geometry.in .
  -----------------------------------------------------------------------
  
  #=======================================================
  # FHI-aims file: qmdata/data/geoms/303.in
  # Created using the Atomic Simulation Environment (ASE)
  # Wed Sep 21 12:30:23 2022
  #=======================================================
  lattice_vector 5.0000000000000000 0.0000000000000000 0.0000000000000000
  lattice_vector 0.0000000000000000 5.0000000000000000 0.0000000000000000
  lattice_vector 0.0000000000000000 0.0000000000000000 5.0000000000000000
  atom 0.0603065800000000 -0.0009244700000000 0.0033644300000000 O
  atom -0.4735340300000000 -0.8356657500000000 -0.0264179200000000 H
  atom -0.4836534500000000 0.8503390000000000 -0.0269824700000000 H
  
  -----------------------------------------------------------------------
  Completed first pass over input file geometry.in .
  -----------------------------------------------------------------------
  

  Basic array size parameters:
  | Number of species                 :        2
  | Number of atoms                   :        3
  | Number of lattice vectors         :        3
  | Max. basis fn. angular momentum   :        4
  | Max. atomic/ionic basis occupied n:        2
  | Max. number of basis fn. types    :        2
  | Max. radial fns per species/type  :        8
  | Max. logarithmic grid size        :     1301
  | Max. radial integration grid size :       73
  | Max. angular integration grid size:      434
  | Max. angular grid division number :        8
  | Radial grid for Hartree potential :     1301
  | Number of spin channels           :        1

------------------------------------------------------------
          Reading file control.in.
------------------------------------------------------------
  XC: Using PBE gradient-corrected functionals.
  Spin treatment: No spin polarisation.
  Non-relativistic treatment of kinetic energy.
  Charge =   0.000000E+00: Neutral system requested explicitly.
  DFPT calculation will begin after the DFT/HF calculation.
  Convergence accuracy of self-consistent charge density:  0.1000E-05
  Found k-point grid:         1         1         1
  Threshold value for wave function integration:  0.1000E-07
 
  Reading configuration options for species O                   .
  | Found nuclear charge :   8.0000
  | Found atomic mass :    15.9994000000000      amu
  | Found l_max for Hartree potential  :   6
  | Found cutoff potl. onset [A], width [A], scale factor :    4.00000    2.00000    1.00000
  | Threshold for basis-dependent cutoff potential is   0.100000E-03
  | Found data for basic radial integration grid :    36 points, outermost radius =    7.000 A
  | Found multiplier for basic radial grid :   2
  | Found angular grid specification: user-specified.
  | Specified grid contains     6 separate shells.
  | Check grid settings after all constraints further below.
  | Found free-atom valence shell :  2 s   2.000
  | Found free-atom valence shell :  2 p   4.000
  | No ionic wave fns used. Skipping ion_occ.
  | No ionic wave fns used. Skipping ion_occ.
  | Found hydrogenic basis function :  2 p   1.800
  | Found hydrogenic basis function :  3 d   7.600
  | Found hydrogenic basis function :  3 s   6.400
  | Found hydrogenic basis function :  4 f  11.600
  | Found hydrogenic basis function :  3 p   6.200
  | Found hydrogenic basis function :  3 d   5.600
  | Found hydrogenic basis function :  5 g  17.600
  | Found hydrogenic basis function :  1 s   0.750
  Species O                   : Missing cutoff potential type.
  Defaulting to exp(1/x)/(1-x)^2 type cutoff potential.
  Species O : No 'logarithmic' tag. Using default grid for free atom:
  | Default logarithmic grid data [bohr] : 0.1000E-03 0.1000E+03 0.1012E+01
  Species O : On-site basis accuracy parameter (for Gram-Schmidt orthonormalisation) not specified.
  Using default value basis_acc =  0.1000000E-03.
  Species O                   : Using default innermost maximum threshold i_radial=  2 for radial functions.
  Species O                   : Default cutoff onset for free atom density etc. : 0.40000000E+01 AA.
  Species O                   : Basic radial grid will be enhanced according to radial_multiplier =   2, to contain    73 grid points.
 
  Reading configuration options for species H                   .
  | Found nuclear charge :   1.0000
  | Found atomic mass :    1.00794000000000      amu
  | Found l_max for Hartree potential  :   6
  | Found cutoff potl. onset [A], width [A], scale factor :    4.00000    2.00000    1.00000
  | Threshold for basis-dependent cutoff potential is   0.100000E-03
  | Found data for basic radial integration grid :    24 points, outermost radius =    7.000 A
  | Found multiplier for basic radial grid :   2
  | Found angular grid specification: user-specified.
  | Specified grid contains     6 separate shells.
  | Check grid settings after all constraints further below.
  | Found free-atom valence shell :  1 s   1.000
  | No ionic wave fns used. Skipping ion_occ.
  | Found hydrogenic basis function :  2 s   2.100
  | Found hydrogenic basis function :  2 p   3.500
  | Found hydrogenic basis function :  1 s   0.850
  | Found hydrogenic basis function :  2 p   3.700
  | Found hydrogenic basis function :  2 s   1.200
  | Found hydrogenic basis function :  3 d   7.000
  Species H                   : Missing cutoff potential type.
  Defaulting to exp(1/x)/(1-x)^2 type cutoff potential.
  Species H : No 'logarithmic' tag. Using default grid for free atom:
  | Default logarithmic grid data [bohr] : 0.1000E-03 0.1000E+03 0.1012E+01
  Species H : On-site basis accuracy parameter (for Gram-Schmidt orthonormalisation) not specified.
  Using default value basis_acc =  0.1000000E-03.
  Species H                   : Using default innermost maximum threshold i_radial=  2 for radial functions.
  Species H                   : Default cutoff onset for free atom density etc. : 0.40000000E+01 AA.
  Species H                   : Basic radial grid will be enhanced according to radial_multiplier =   2, to contain    49 grid points.
 
  Finished reading input file 'control.in'.
 
------------------------------------------------------------


------------------------------------------------------------
          Reading geometry description geometry.in.
------------------------------------------------------------
  | The smallest distance between any two atoms is         0.99129501 AA.
  | The first atom of this pair is atom number                      1 .
  | The second atom of this pair is atom number                     2 .
  | Wigner-Seitz cell of the first atom image           0     0     0 .
  | (The Wigner-Seitz cell of the second atom is 0 0 0  by definition.)

  Symmetry information by spglib:
  | Precision set to  0.1E-04
  | Number of Operations  : 1
  | Space group           : 1
  | International         : P1 SL    z
  | Schoenflies           : C1^1
  Input structure read successfully.
  The structure contains        3 atoms,  and a total of         10.000 electrons.

  Input geometry:
  | Unit cell:
  |        5.00000000        0.00000000        0.00000000
  |        0.00000000        5.00000000        0.00000000
  |        0.00000000        0.00000000        5.00000000
  | Atomic structure:
  |       Atom                x [A]            y [A]            z [A]
  |    1: Species O             0.06030658       -0.00092447        0.00336443
  |    2: Species H            -0.47353403       -0.83566575       -0.02641792
  |    3: Species H            -0.48365345        0.85033900       -0.02698247

  Lattice parameters for 3D lattice (in Angstroms) :     5.000000    5.000000    5.000000
  Angle(s) between unit vectors (in degrees)       :    90.000000   90.000000   90.000000


  Quantities derived from the lattice vectors (in Angstrom^-1):
  | Reciprocal lattice vector 1:  1.256637  0.000000  0.000000
  | Reciprocal lattice vector 2:  0.000000  1.256637  0.000000
  | Reciprocal lattice vector 3:  0.000000  0.000000  1.256637
  | Unit cell volume                               :   0.125000E+03  Angstrom^3

  Fractional coordinates:
                         L1                L2                L3
       atom_frac         0.01206132       -0.00018489        0.00067289  O
       atom_frac        -0.09470681       -0.16713315       -0.00528358  H
       atom_frac        -0.09673069        0.17006780       -0.00539649  H

 
  Finished reading input file 'geometry.in'.
 

 
  Consistency checks for stacksize environment parameter are next.
 
  | Maximum stacksize for task 0: unlimited
  | Maximum stacksize for task 1: unlimited
  | Maximum stacksize for task 2: unlimited
  | Maximum stacksize for task 3: unlimited
  | Maximum stacksize for task 4: unlimited
  | Maximum stacksize for task 5: unlimited
  | Maximum stacksize for task 6: unlimited
  | Maximum stacksize for task 7: unlimited
  | Maximum stacksize for task 8: unlimited
  | Maximum stacksize for task 9: unlimited
  | Maximum stacksize for task 10: unlimited
  | Maximum stacksize for task 11: unlimited
  | Maximum stacksize for task 12: unlimited
  | Maximum stacksize for task 13: unlimited
  | Maximum stacksize for task 14: unlimited
  | Maximum stacksize for task 15: unlimited
  | Current stacksize for task 0: unlimited
  | Current stacksize for task 1: unlimited
  | Current stacksize for task 2: unlimited
  | Current stacksize for task 3: unlimited
  | Current stacksize for task 4: unlimited
  | Current stacksize for task 5: unlimited
  | Current stacksize for task 6: unlimited
  | Current stacksize for task 7: unlimited
  | Current stacksize for task 8: unlimited
  | Current stacksize for task 9: unlimited
  | Current stacksize for task 10: unlimited
  | Current stacksize for task 11: unlimited
  | Current stacksize for task 12: unlimited
  | Current stacksize for task 13: unlimited
  | Current stacksize for task 14: unlimited
  | Current stacksize for task 15: unlimited
 
  Consistency checks for the contents of control.in are next.
 
  MPI_IN_PLACE appears to work with this MPI implementation.
  | Keeping use_mpi_in_place .true. (see manual).
  Target number of points in a grid batch is not set. Defaulting to  100
  Method for grid partitioning is not set. Defaulting to parallel hash+maxmin partitioning.
  Batch size limit is not set. Defaulting to    200
  By default, will store active basis functions for each batch.
  If in need of memory, prune_basis_once .false. can be used to disable this option.
  communication_type for Hartree potential was not specified.
  Defaulting to calc_hartree .
  Defaulting to Pulay charge density mixer.
  Pulay mixer: Number of relevant iterations not set.
  Defaulting to    8 iterations.
  Pulay mixer: Number of initial linear mixing iterations not set.
  Defaulting to    0 iterations.
  Work space size for distributed Hartree potential not set.
  Defaulting to   0.200000E+03 MB.
  Mixing parameter for charge density mixing has not been set.
  Using default: charge_mix_param =     0.0500.
  The mixing parameter will be adjusted in iteration number     2 of the first full s.c.f. cycle only.
  Algorithm-dependent basis array size parameters:
  | n_max_pulay                         :        8
  Maximum number of self-consistency iterations not provided.
  Presetting  1000 iterations.
  Presetting      1001 iterations before the initial mixing cycle
  is restarted anyway using the sc_init_iter criterion / keyword.
  Presetting a factor      1.000 between actual scf density residual
  and density convergence criterion sc_accuracy_rho below which sc_init_iter
  takes no effect.
  Calculation of forces was not defined in control.in. No forces will be calculated.
  Geometry relaxation not requested: no relaxation will be performed.
  No accuracy limit for integral partition fn. given. Defaulting to  0.1000E-14.
  No occupation type (smearing scheme) given. Defaulting to Gaussian broadening, width =  0.1000E-01 eV.
  The width will be adjusted in iteration number     2 of the first full s.c.f. cycle only.
  S.C.F. convergence parameters will be adjusted in iteration number     2 of the first full s.c.f. cycle only.
  No accuracy for occupation numbers given. Defaulting to  0.1000E-12.
  No threshold value for occupation numbers given. Defaulting to  0.0000E+00.
  No accuracy for fermi level given. Defaulting to  0.1000E-19.
  Maximum # of iterations to find E_F not set. Defaulting to  200.
  Preferred method for the eigenvalue solver ('KS_method') not specified in 'control.in'.
  Calling BLACS routine to test compilation state
  Since ScaLAPACK support is enabled, defaulting to ELPA (via ELSI).
  Will not use alltoall communication since running on < 1024 CPUs.
  Threshold for basis singularities not set.
  Default threshold for basis singularities:  0.1000E-04
  partition_type (choice of integration weights) for integrals was not specified.
  | Using a version of the partition function of Stratmann and coworkers ('stratmann_sparse').
  | At each grid point, the set of atoms used to build the partition table is smoothly restricted to
  | only those atoms whose free-atom density would be non-zero at that grid point.
  Partitioning for Hartree potential was not defined. Using partition_type for integrals.
  | Adjusted default value of keyword multip_moments_threshold to:       0.10000000E-11
  | This value may affect high angular momentum components of the Hartree potential in periodic systems.
  Angular momentum expansion for Kerker preconditioner not set explicitly.
  | Using default value of   0
  No explicit requirement for turning off preconditioner.
  | By default, it will be turned off when the charge convergence reaches
  | sc_accuracy_rho  =   0.100000E-05
  No special mixing parameter while Kerker preconditioner is on.
  Using default: charge_mix_param =     0.0500.
  No q(lm)/r^(l+1) cutoff set for long-range Hartree potential.
  | Using default value of  0.100000E-09 .
  | Verify using the multipole_threshold keyword.
  Defaulting to new monopole extrapolation.
  Density update method: automatic selection selected.
  Using density matrix based charge density update.
  Using density matrix based charge density update.
  Using packed matrix style: index .
  Defaulting to use time-reversal symmetry for k-point grid.
  Charge integration errors on the 3D integration grid will be compensated
  by explicit normalization and distribution of residual charges.
  Use the "compensate_multipole_errors" flag to change this behaviour.
 
  Consistency checks for the contents of geometry.in are next.
 

  Range separation radius for Ewald summation (hartree_convergence_parameter):      5.00000000 bohr.
  Number of empty states per atom not set in control.in .
  | Since you are using a method that relies on the unoccupied spectrum
  | (MP2,GW,RPA et al.), will use the full Hamiltonian size (see below)
  | as the max. possible number of states (occupied plus empty).

  Structure-dependent array size parameters: 
  | Maximum number of distinct radial functions  :       18
  | Maximum number of basis functions            :       69
  | Number of Kohn-Sham states (occupied + empty):       69
------------------------------------------------------------

------------------------------------------------------------
          Preparing all fixed parts of the calculation.
------------------------------------------------------------
  Determining machine precision:
    2.225073858507201E-308
  Setting up grids for atomic and cluster calculations.

  Creating wave function, potential, and density for free atoms.
  Runtime choices for atomic solver:
  | atomic solver xc        : PBE
  | compute density gradient: 1
  | compute kinetic density : F

  Species: O

  List of occupied orbitals and eigenvalues:
    n    l              occ      energy [Ha]    energy [eV]
    1    0           2.0000       -18.898576      -514.2564
    2    0           2.0000        -0.878795       -23.9132
    2    1           4.0000        -0.332075        -9.0362


  Species: H

  List of occupied orbitals and eigenvalues:
    n    l              occ      energy [Ha]    energy [eV]
    1    0           1.0000        -0.238382        -6.4867


  Adding cutoff potential to free-atom effective potential.
  Creating fixed part of basis set: Ionic, confined, hydrogenic.
 
  O                    hydrogenic:
 
  List of hydrogenic basis orbitals: 
    n    l      effective z      eigenvalue [eV]  inner max. [A]     outer max. [A]     outer radius [A]   
    2    1         1.800000       -11.0118           1.178562           1.178562           5.567066
    3    2         7.600000       -87.3182           0.624125           0.624125           3.764702
    3    0         6.400000       -61.9209           0.061167           1.081902           4.522403
    4    3        11.600000      -114.4238           0.731631           0.731631           3.811008
    3    1         6.200000       -58.1113           0.255680           1.030270           4.522403
    3    2         5.600000       -47.4081           0.847233           0.847233           4.578029
    5    4        17.600000      -168.5799           0.749740           0.749740           3.629133
    1    0         0.750000        -7.6499           0.705284           0.705284           5.567066
 
 
  H                    hydrogenic:
 
  List of hydrogenic basis orbitals: 
    n    l      effective z      eigenvalue [eV]  inner max. [A]     outer max. [A]     outer radius [A]   
    2    0         2.100000       -14.9965           0.193243           1.317208           5.573719
    2    1         3.500000       -41.6672           0.602369           0.602369           4.259334
    1    0         0.850000        -9.8292           0.624871           0.624871           5.573719
    2    1         3.700000       -46.5653           0.573622           0.573622           4.105953
    2    0         1.200000        -4.5995           0.334980           2.228188           5.642276
    3    2         7.000000       -74.0753           0.680699           0.680699           3.958095
 
  Creating atomic-like basis functions for current effective potential.

  Species O                   :

  List of atomic basis orbitals and eigenvalues:
    n    l      energy [Ha]    energy [eV]    outer radius [A]
    1    0       -18.898576      -514.2564       1.807907
    2    0        -0.878795       -23.9132       5.366593
    2    1        -0.332075        -9.0362       5.499423


  Species H                   :

  List of atomic basis orbitals and eigenvalues:
    n    l      energy [Ha]    energy [eV]    outer radius [A]
    1    0        -0.238382        -6.4867       5.573719

  Assembling full basis from fixed parts.
  | Species O :   atomic orbital   1 s accepted.
  | Species O :    hydro orbital   3 s accepted.
  | Species O :   atomic orbital   2 s accepted.
  | Species O :    hydro orbital   1 s accepted.
  | Species O :    hydro orbital   3 p accepted.
  | Species O :   atomic orbital   2 p accepted.
  | Species O :    hydro orbital   2 p accepted.
  | Species O :    hydro orbital   3 d accepted.
  | Species O :    hydro orbital   3 d accepted.
  | Species O :    hydro orbital   4 f accepted.
  | Species O :    hydro orbital   5 g accepted.
  | Species H :   atomic orbital   1 s accepted.
  | Species H :    hydro orbital   2 s accepted.
  | Species H :    hydro orbital   1 s accepted.
  | Species H :    hydro orbital   2 s accepted.
  | Species H :    hydro orbital   2 p accepted.
  | Species H :    hydro orbital   2 p accepted.
  | Species H :    hydro orbital   3 d accepted.
 
  Basis size parameters after reduction:
  | Total number of radial functions:       18
  | Total number of basis functions :       69
 
  Per-task memory consumption for arrays in subroutine allocate_ext:
  |           4.499020MB.
  Testing on-site integration grid accuracy.
  |  Species  Function  <phi|h_atom|phi> (log., in eV)  <phi|h_atom|phi> (rad., in eV)
           1        1               -514.2564144315               -514.2564099626
           1        2                 15.1726678541                 15.1726530877
           1        3                -21.5447785304                -21.5447874973
           1        4                 14.4944558459                 14.4944698284
           1        5                 20.8882174564                 20.8882178906
           1        6                 -2.4850315909                 -2.4850322289
           1        7                 13.8600193195                 13.8599826966
           1        8                 45.8243383616                 45.8243383675
           1        9                 52.1840606465                 52.1840622440
           1       10                 85.4074185510                 85.4074185819
           1       11                142.0983717302                142.0983717339
           2       12                 -6.4869821809                 -6.4870742227
           2       13                 13.5044133542                 13.5041049177
           2       14                 32.7854418792                 32.7779770519
           2       15                 33.7995553101                 33.7152624900 ***
           2       16                 28.8558651799                 28.8558652046
           2       17                 59.6361831893                 59.6362535845
           2       18                 60.2733718049                 60.2733715484
 * Note: Onsite integrals marked "***" above are less accurate than
 * onsite_accuracy_threshold =    0.03000 eV. Usually, this is harmless.
 * When in doubt, tighten the "radial" and/or "radial_multiplier" flags to check.

  Preparing densities etc. for the partition functions (integrals / Hartree potential).

  Preparations completed.
  max(cpu_time)          :      0.152 s.
  Wall clock time (cpu1) :      0.169 s.
------------------------------------------------------------

  Initializing index lists of integration centers etc. from given atomic structure:
  Mapping all atomic coordinates to central unit cell.

  Initializing the k-points
  Using symmetry for reducing the k-points
  | k-points reduced from:        1 to        1
  | Number of k-points                             :         1
  | Consuming          0 KiB for k_phase_exx.
  The eigenvectors in the calculations are REAL.
  | Number of basis functions in the Hamiltonian integrals :      1565
  | Number of basis functions in a single unit cell        :        69
  | Number of centers in hartree potential         :       657
  | Number of centers in hartree multipole         :       243
  | Number of centers in electron density summation:       191
  | Number of centers in basis integrals           :       211
  | Number of centers in integrals                 :        81
  | Number of centers in hamiltonian               :       191
  | Consuming          1 KiB for k_phase.
  | Number of super-cells (origin) [n_cells]                     :        1331
  | Number of super-cells (after PM_index) [n_cells]             :          74
  | Number of super-cells in hamiltonian [n_cells_in_hamiltonian]:          74
  | Size of matrix packed + index [n_hamiltonian_matrix_size] :       62521
  | Size of matrix packed + index (no_symmetry):      123044

------------------------------------------------------------
          Begin self-consistency loop: Initialization.

          Date     :  20221003, Time     :  094452.829
------------------------------------------------------------
  | Estimated reciprocal-space cutoff momentum G_max:         1.90186217 bohr^-1 .
  | Reciprocal lattice points for long-range Hartree potential:      92
  Using simple linear distribution as default method for k-point parallelism.
  * Using 16 tasks for Scalapack Eigenvalue solver.
  Detailed listing of tasks and assigned k-points:
   Task     0 k-point     1 on mpsd-hpc-ibm-056
   Task     1 k-point     1 on mpsd-hpc-ibm-056
   Task     2 k-point     1 on mpsd-hpc-ibm-056
   Task     3 k-point     1 on mpsd-hpc-ibm-056
   Task     4 k-point     1 on mpsd-hpc-ibm-057
   Task     5 k-point     1 on mpsd-hpc-ibm-057
   Task     6 k-point     1 on mpsd-hpc-ibm-057
   Task     7 k-point     1 on mpsd-hpc-ibm-057
   Task     8 k-point     1 on mpsd-hpc-ibm-058
   Task     9 k-point     1 on mpsd-hpc-ibm-058
   Task    10 k-point     1 on mpsd-hpc-ibm-058
   Task    11 k-point     1 on mpsd-hpc-ibm-058
   Task    12 k-point     1 on mpsd-hpc-ibm-059
   Task    13 k-point     1 on mpsd-hpc-ibm-059
   Task    14 k-point     1 on mpsd-hpc-ibm-059
   Task    15 k-point     1 on mpsd-hpc-ibm-059
  K-point:     1 Tasks:    16 split into      4 X      4 BLACS grid
  Calculating block size based on n_basis =           69  max_nprow =            4  max_npcol =            4
  ScaLAPACK block size set to:           16
  Allocating        0.003 MB for ovlp
  Allocating        0.003 MB for ham
  Allocating        0.003 MB for eigenvec
  Required Scalapack workspace - INTEGER:            1  REAL:             1
  Partitioning the integration grid into batches with parallel hashing+maxmin method.
  | Number of batches:      489
  | Maximal batch size:     161
  | Minimal batch size:      50
  | Average batch size:      95.890
  | Standard deviation of batch sizes:      26.435

  Integration load balanced across    16 MPI tasks.
  Work distribution over tasks is as follows:
  Task     0 has       2897 integration points.
  Task     1 has       2957 integration points.
  Task     2 has       2904 integration points.
  Task     3 has       2921 integration points.
  Task     4 has       2904 integration points.
  Task     5 has       2948 integration points.
  Task     6 has       2910 integration points.
  Task     7 has       2907 integration points.
  Task     8 has       2901 integration points.
  Task     9 has       2939 integration points.
  Task    10 has       2960 integration points.
  Task    11 has       2955 integration points.
  Task    12 has       2966 integration points.
  Task    13 has       2915 integration points.
  Task    14 has       2960 integration points.
  Task    15 has       2946 integration points.
  Initializing partition tables, free-atom densities, potentials, etc. across the integration grid (initialize_grid_storage).
  | initialize_grid_storage: Actual outermost partition radius vs. multipole_radius_free
  | (-- VB: in principle, multipole_radius_free should be larger, hence this output)
  | Species        1: Confinement radius =              6.000000000000000 AA, multipole_radius_free =              6.064445521808699 AA.
  | Species        1: outer_partition_radius set to              6.064445521808699 AA .
  | Species        2: Confinement radius =              6.000000000000000 AA, multipole_radius_free =              6.071692442739658 AA.
  | Species        2: outer_partition_radius set to              6.071692442739658 AA .
  | The sparse table of interatomic distances needs        429.54 kbyte instead of       356.17 kbyte of memory.
  | Using the partition_type stratmann_smoother will reduce your memory usage.
  | Net number of integration points:    46890
  | of which are non-zero points    :    37719
  | Numerical average free-atom electrostatic potential    :     -1.29049362 eV
  Renormalizing the initial density to the exact electron count on the 3D integration grid.
  | Initial density: Formal number of electrons (from input files) :      10.0000000000
  | Integrated number of electrons on 3D grid     :      10.0000028989
  | Charge integration error                      :       0.0000028989
  | Normalization factor for density and gradient :       0.9999997101
  Renormalizing the free-atom superposition density to the exact electron count on the 3D integration grid.
  | Formal number of electrons (from input files) :      10.0000000000
  | Integrated number of electrons on 3D grid     :      10.0000028989
  | Charge integration error                      :       0.0000028989
  | Normalization factor for density and gradient :       0.9999997101
  Obtaining max. number of non-zero basis functions in each batch (get_n_compute_maxes).
  | Maximal number of non-zero basis functions:      378 in task     0
  | Maximal number of non-zero basis functions:      378 in task     1
  | Maximal number of non-zero basis functions:      342 in task     2
  | Maximal number of non-zero basis functions:      378 in task     3
  | Maximal number of non-zero basis functions:      319 in task     4
  | Maximal number of non-zero basis functions:      431 in task     5
  | Maximal number of non-zero basis functions:      422 in task     6
  | Maximal number of non-zero basis functions:      405 in task     7
  | Maximal number of non-zero basis functions:      378 in task     8
  | Maximal number of non-zero basis functions:      370 in task     9
  | Maximal number of non-zero basis functions:      344 in task    10
  | Maximal number of non-zero basis functions:      422 in task    11
  | Maximal number of non-zero basis functions:      399 in task    12
  | Maximal number of non-zero basis functions:      356 in task    13
  | Maximal number of non-zero basis functions:      378 in task    14
  | Maximal number of non-zero basis functions:      405 in task    15
  Integrating Hamiltonian matrix: batch-based integration.
  Time summed over all CPUs for integration: real work        1.102 s, elapsed        1.208 s
  Integrating overlap matrix.
  Time summed over all CPUs for integration: real work        0.616 s, elapsed        0.669 s
  Deallocating overlap matrix.

  Updating Kohn-Sham eigenvalues and eigenvectors using ELSI and the ELPA eigensolver.
  Singularity check in k-point 1 (analysis for other k-points may follow below):
  Overlap matrix is not singular
  | Lowest and highest eigenvalues :  0.2781E-03,  0.6933E+01
  Finished singularity check of overlap matrix
  | Time :     0.003 s
  Starting ELPA eigensolver
  Finished Cholesky decomposition
  | Time :     0.003 s
  Finished transformation to standard eigenproblem
  | Time :     0.001 s
  Finished solving standard eigenproblem
  | Time :     0.004 s
  Finished back-transformation of eigenvectors
  | Time :     0.001 s

  Obtaining occupation numbers and electronic chemical potential using ELSI.
  | Note that, for insulating systems, the printed 'chemical potential' value is not uniquely defined.
  | It can be anywhere in the energy gap, as long as it correctly separates occupied and unoccupied states.
  | In systems with a gap, the physically relevant chemical potential is the VBM or HOMO.

  | Chemical potential (Fermi level):    -7.88235952 eV
  Writing Kohn-Sham eigenvalues.

  State    Occupation    Eigenvalue [Ha]    Eigenvalue [eV]
      1       2.00000         -18.993608         -516.84238
      2       2.00000          -1.071496          -29.15689
      3       2.00000          -0.624233          -16.98624
      4       2.00000          -0.484469          -13.18306
      5       2.00000          -0.427605          -11.63571
      6       0.00000          -0.118780           -3.23218
      7       0.00000           0.054114            1.47252
      8       0.00000           0.069738            1.89767
      9       0.00000           0.188095            5.11833
     10       0.00000           0.197997            5.38777
     11       0.00000           0.205210            5.58405
     12       0.00000           0.345148            9.39196
     13       0.00000           0.417750           11.36756
     14       0.00000           0.433949           11.80835
     15       0.00000           0.444489           12.09516
     16       0.00000           0.535312           14.56658
     17       0.00000           0.563550           15.33497
     18       0.00000           0.616658           16.78012
     19       0.00000           0.873131           23.75910
     20       0.00000           0.909172           24.73983
     21       0.00000           1.035078           28.16590
     22       0.00000           1.088272           29.61340
     23       0.00000           1.095223           29.80254
     24       0.00000           1.189556           32.36947
     25       0.00000           1.353386           36.82751
     26       0.00000           1.408850           38.33676
     27       0.00000           1.419605           38.62943
     28       0.00000           1.703429           46.35265
     29       0.00000           2.134434           58.08091
     30       0.00000           2.188450           59.55077
     31       0.00000           2.196481           59.76929
     32       0.00000           2.221322           60.44525
     33       0.00000           2.371439           64.53013
     34       0.00000           2.523336           68.66346
     35       0.00000           2.644411           71.95809
     36       0.00000           2.685668           73.08074
     37       0.00000           2.740666           74.57731
     38       0.00000           2.805416           76.33926
     39       0.00000           2.943350           80.09264
     40       0.00000           3.070564           83.55429
     41       0.00000           3.276819           89.16677
     42       0.00000           3.283724           89.35469
     43       0.00000           3.463252           94.23989
     44       0.00000           3.518383           95.74007
     45       0.00000           3.684224          100.25283
     46       0.00000           3.709027          100.92776
     47       0.00000           3.732475          101.56580
     48       0.00000           3.959142          107.73374
     49       0.00000           3.964508          107.87975
     50       0.00000           4.216261          114.73030
     51       0.00000           4.235788          115.26166
     52       0.00000           5.034786          137.00349
     53       0.00000           5.094420          138.62622
     54       0.00000           5.201820          141.54872
     55       0.00000           5.275479          143.55309
     56       0.00000           5.306035          144.38457
     57       0.00000           5.342961          145.38936
     58       0.00000           5.497251          149.58781
     59       0.00000           5.803107          157.91056
     60       0.00000           6.166345          167.79477
     61       0.00000           6.305590          171.58384
     62       0.00000           6.633403          180.50408
     63       0.00000           6.962216          189.45153
     64       0.00000           7.106751          193.38453
     65       0.00000           7.177860          195.31950
     66       0.00000           7.547666          205.38245
     67       0.00000           7.597136          206.72859
     68       0.00000           8.479708          230.74460
     69       0.00000           8.524828          231.97236

  Highest occupied state (VBM) at    -11.63571323 eV (relative to internal zero)
  | Occupation number:      2.00000000
  | K-point:       1 at    0.000000    0.000000    0.000000 (in units of recip. lattice)

  Lowest unoccupied state (CBM) at    -3.23218065 eV (relative to internal zero)
  | Occupation number:      0.00000000
  | K-point:       1 at    0.000000    0.000000    0.000000 (in units of recip. lattice)

  ESTIMATED overall HOMO-LUMO gap:      8.40353258 eV between HOMO at k-point 1 and LUMO at k-point 1
  The gap value is above 0.2 eV. Unless you are using a very sparse k-point grid,
  this system is most likely an insulator or a semiconductor.
  Calculating total energy contributions from superposition of free atom densities.

  Total energy components:
  | Sum of eigenvalues            :         -43.20282060 Ha       -1175.60856281 eV
  | XC energy correction          :          -8.99786722 Ha        -244.84442449 eV
  | XC potential correction       :          11.56837301 Ha         314.79144599 eV
  | Free-atom electrostatic energy:         -35.82042518 Ha        -974.72336241 eV
  | Hartree energy correction     :           0.00000000 Ha           0.00000000 eV
  | Entropy correction            :           0.00000000 Ha           0.00000000 eV
  | ---------------------------
  | Total energy                  :         -76.45273998 Ha       -2080.38490372 eV
  | Total energy, T -> 0          :         -76.45273998 Ha       -2080.38490372 eV  <-- do not rely on this value for anything but (periodic) metals
  | Electronic free energy        :         -76.45273998 Ha       -2080.38490372 eV

  Derived energy quantities:
  | Kinetic energy                :          75.50588386 Ha        2054.61963765 eV
  | Electrostatic energy          :        -142.96075662 Ha       -3890.16011688 eV
  | Energy correction for multipole
  | error in Hartree potential    :           0.00000000 Ha           0.00000000 eV
  | Sum of eigenvalues per atom                           :        -391.86952094 eV
  | Total energy (T->0) per atom                          :        -693.46163457 eV  <-- do not rely on this value for anything but (periodic) metals
  | Electronic free energy per atom                       :        -693.46163457 eV
  Initialize hartree_potential_storage
  Max. number of atoms included in rho_multipole:            3

  End scf initialization - timings             :  max(cpu_time)    wall_clock(cpu1)
  | Time for scf. initialization                :        0.272 s           0.271 s
  | Boundary condition initialization           :        0.048 s           0.047 s
  | Integration                                 :        0.124 s           0.123 s
  | Solution of K.-S. eqns.                     :        0.016 s           0.015 s
  | Grid partitioning                           :        0.032 s           0.030 s
  | Preloading free-atom quantities on grid     :        0.084 s           0.080 s
  | Free-atom superposition energy              :        0.012 s           0.011 s
  | Total energy evaluation                     :        0.000 s           0.001 s

  Partial memory accounting:
  | Current value for overall tracked memory usage:
  |   Minimum:        0.722 MB (on task  5)
  |   Maximum:        0.726 MB (on task  0)
  |   Average:        0.723 MB
  | Peak value for overall tracked memory usage:
  |   Minimum:        3.160 MB (on task  4 after allocating wave)
  |   Maximum:        4.214 MB (on task  5 after allocating wave)
  |   Average:        3.733 MB
  | Largest tracked array allocation so far:
  |   Minimum:        0.776 MB (hamiltonian_shell on task  4)
  |   Maximum:        1.417 MB (hamiltonian_shell on task  5)
  |   Average:        1.118 MB
  Note:  These values currently only include a subset of arrays which are explicitly tracked.
  The "true" memory usage will be greater.
------------------------------------------------------------
  Evaluating new KS density using the density matrix
  Evaluating density matrix
  Finished density matrix calculation
  | Time :     0.000 s
  Time summed over all CPUs for getting density from density matrix: real work        2.297 s, elapsed        2.727 s
  Integration grid: deviation in total charge (<rho> - N_e) =  -5.329071E-15

  Time for density update prior                :  max(cpu_time)    wall_clock(cpu1)
  | self-consistency iterative process          :        0.200 s           0.198 s

------------------------------------------------------------
          Begin self-consistency iteration #    1

  Date     :  20221003, Time     :  094453.331
------------------------------------------------------------
  Pulay mixing of updated and previous charge densities.
  Renormalizing the density to the exact electron count on the 3D integration grid.
  | Formal number of electrons (from input files) :      10.0000000000
  | Integrated number of electrons on 3D grid     :       9.9996584109
  | Charge integration error                      :      -0.0003415891
  | Normalization factor for density and gradient :       1.0000341601

  Evaluating partitioned Hartree potential by multipole expansion.
  | Original multipole sum: apparent total charge =   0.420160E-14
  | Sum of charges compensated after spline to logarithmic grids =   0.990356E-07
  | Analytical far-field extrapolation by fixed multipoles:
  | Hartree multipole sum: apparent total charge =   0.426156E-14
  Summing up the Hartree potential.
  Time summed over all CPUs for potential: real work        2.455 s, elapsed        2.550 s
  | RMS charge density error from multipole expansion :   0.104739E-03
  | Average real-space part of the electrostatic potential :      0.00950886 eV

  Integrating Hamiltonian matrix: batch-based integration.
  Time summed over all CPUs for integration: real work        1.089 s, elapsed        1.181 s

  Updating Kohn-Sham eigenvalues and eigenvectors using ELSI and the ELPA eigensolver.
  Starting ELPA eigensolver
  Finished transformation to standard eigenproblem
  | Time :     0.001 s
  Finished solving standard eigenproblem
  | Time :     0.004 s
  Finished back-transformation of eigenvectors
  | Time :     0.000 s

  Obtaining occupation numbers and electronic chemical potential using ELSI.
  | Note that, for insulating systems, the printed 'chemical potential' value is not uniquely defined.
  | It can be anywhere in the energy gap, as long as it correctly separates occupied and unoccupied states.
  | In systems with a gap, the physically relevant chemical potential is the VBM or HOMO.

  | Chemical potential (Fermi level):    -7.43122138 eV
  Writing Kohn-Sham eigenvalues.

  State    Occupation    Eigenvalue [Ha]    Eigenvalue [eV]
      1       2.00000         -18.964191         -516.04190
      2       2.00000          -1.057774          -28.78349
      3       2.00000          -0.612880          -16.67731
      4       2.00000          -0.470447          -12.80150
      5       2.00000          -0.412926          -11.23629
      6       0.00000          -0.117280           -3.19136
      7       0.00000           0.058191            1.58345
      8       0.00000           0.072132            1.96280
      9       0.00000           0.191270            5.20471
     10       0.00000           0.200706            5.46149
     11       0.00000           0.206778            5.62673
     12       0.00000           0.347404            9.45334
     13       0.00000           0.420202           11.43428
     14       0.00000           0.436601           11.88053
     15       0.00000           0.447063           12.16520
     16       0.00000           0.538994           14.66677
     17       0.00000           0.567083           15.43112
     18       0.00000           0.618789           16.83810
     19       0.00000           0.874624           23.79973
     20       0.00000           0.912233           24.82312
     21       0.00000           1.038847           28.26847
     22       0.00000           1.092095           29.71742
     23       0.00000           1.099513           29.91926
     24       0.00000           1.196832           32.56747
     25       0.00000           1.358595           36.96925
     26       0.00000           1.418015           38.58616
     27       0.00000           1.430686           38.93095
     28       0.00000           1.710478           46.54449
     29       0.00000           2.139484           58.21832
     30       0.00000           2.193641           59.69202
     31       0.00000           2.200724           59.88476
     32       0.00000           2.228188           60.63209
     33       0.00000           2.376166           64.65878
     34       0.00000           2.532179           68.90409
     35       0.00000           2.647800           72.05030
     36       0.00000           2.692445           73.26517
     37       0.00000           2.744025           74.66873
     38       0.00000           2.811521           76.50539
     39       0.00000           2.954431           80.39416
     40       0.00000           3.080033           83.81196
     41       0.00000           3.282398           89.31860
     42       0.00000           3.292503           89.59356
     43       0.00000           3.470913           94.44835
     44       0.00000           3.524432           95.90469
     45       0.00000           3.690788          100.43146
     46       0.00000           3.718362          101.18178
     47       0.00000           3.737246          101.69564
     48       0.00000           3.961737          107.80435
     49       0.00000           3.974528          108.15241
     50       0.00000           4.224379          114.95119
     51       0.00000           4.246101          115.54227
     52       0.00000           5.042702          137.21890
     53       0.00000           5.101942          138.83089
     54       0.00000           5.209697          141.76308
     55       0.00000           5.282996          143.75764
     56       0.00000           5.311375          144.52986
     57       0.00000           5.352811          145.65739
     58       0.00000           5.505423          149.81018
     59       0.00000           5.812318          158.16121
     60       0.00000           6.175046          168.03155
     61       0.00000           6.315407          171.85098
     62       0.00000           6.640824          180.70601
     63       0.00000           6.970101          189.66611
     64       0.00000           7.117448          193.67563
     65       0.00000           7.187063          195.56993
     66       0.00000           7.558815          205.68583
     67       0.00000           7.607921          207.02205
     68       0.00000           8.490176          231.02944
     69       0.00000           8.535357          232.25887

  Highest occupied state (VBM) at    -11.23629467 eV (relative to internal zero)
  | Occupation number:      2.00000000
  | K-point:       1 at    0.000000    0.000000    0.000000 (in units of recip. lattice)

  Lowest unoccupied state (CBM) at    -3.19136119 eV (relative to internal zero)
  | Occupation number:      0.00000000
  | K-point:       1 at    0.000000    0.000000    0.000000 (in units of recip. lattice)

  ESTIMATED overall HOMO-LUMO gap:      8.04493348 eV between HOMO at k-point 1 and LUMO at k-point 1
  The gap value is above 0.2 eV. Unless you are using a very sparse k-point grid,
  this system is most likely an insulator or a semiconductor.

  Total energy components:
  | Sum of eigenvalues            :         -43.03643505 Ha       -1171.08098169 eV
  | XC energy correction          :          -9.01708104 Ha        -245.36725931 eV
  | XC potential correction       :          11.59336342 Ha         315.47146979 eV
  | Free-atom electrostatic energy:         -35.82042518 Ha        -974.72336241 eV
  | Hartree energy correction     :          -0.15859445 Ha          -4.31557462 eV
  | Entropy correction            :           0.00000000 Ha           0.00000000 eV
  | ---------------------------
  | Total energy                  :         -76.43917230 Ha       -2080.01570824 eV
  | Total energy, T -> 0          :         -76.43917230 Ha       -2080.01570824 eV  <-- do not rely on this value for anything but (periodic) metals
  | Electronic free energy        :         -76.43917230 Ha       -2080.01570824 eV

  Derived energy quantities:
  | Kinetic energy                :          75.62615430 Ha        2057.89236284 eV
  | Electrostatic energy          :        -143.04824555 Ha       -3892.54081177 eV
  | Energy correction for multipole
  | error in Hartree potential    :          -0.00011614 Ha          -0.00316034 eV
  | Sum of eigenvalues per atom                           :        -390.36032723 eV
  | Total energy (T->0) per atom                          :        -693.33856941 eV  <-- do not rely on this value for anything but (periodic) metals
  | Electronic free energy per atom                       :        -693.33856941 eV
  Evaluating new KS density using the density matrix
  Evaluating density matrix
  Finished density matrix calculation
  | Time :     0.000 s
  Time summed over all CPUs for getting density from density matrix: real work        2.246 s, elapsed        2.893 s
  Integration grid: deviation in total charge (<rho> - N_e) =  -5.329071E-15

  Self-consistency convergence accuracy:
  | Change of charge density      :  0.3114E+00
  | Change of unmixed KS density  :  0.9099E+01
  | Change of sum of eigenvalues  :  0.4528E+01 eV
  | Change of total energy        :  0.3692E+00 eV


------------------------------------------------------------
  End self-consistency iteration #     1       :  max(cpu_time)    wall_clock(cpu1)
  | Time for this iteration                     :        0.528 s           0.527 s
  | Charge density update                       :        0.184 s           0.184 s
  | Density mixing & preconditioning            :        0.080 s           0.079 s
  | Hartree multipole update                    :        0.004 s           0.004 s
  | Hartree multipole summation                 :        0.172 s           0.170 s
  | Integration                                 :        0.076 s           0.076 s
  | Solution of K.-S. eqns.                     :        0.008 s           0.007 s
  | Total energy evaluation                     :        0.008 s           0.001 s

  Partial memory accounting:
  | Current value for overall tracked memory usage:
  |   Minimum:        0.722 MB (on task  5)
  |   Maximum:        0.726 MB (on task  0)
  |   Average:        0.723 MB
  | Peak value for overall tracked memory usage:
  |   Minimum:        3.851 MB (on task  4 after allocating gradient_basis_wave)
  |   Maximum:        5.316 MB (on task  5 after allocating gradient_basis_wave)
  |   Average:        4.653 MB
  | Largest tracked array allocation so far:
  |   Minimum:        1.176 MB (gradient_basis_wave on task  4)
  |   Maximum:        1.588 MB (gradient_basis_wave on task  5)
  |   Average:        1.406 MB
  Note:  These values currently only include a subset of arrays which are explicitly tracked.
  The "true" memory usage will be greater.
------------------------------------------------------------

------------------------------------------------------------
          Begin self-consistency iteration #    2

  Date     :  20221003, Time     :  094453.862
------------------------------------------------------------
  Pulay mixing of updated and previous charge densities.
  Renormalizing the density to the exact electron count on the 3D integration grid.
  | Formal number of electrons (from input files) :      10.0000000000
  | Integrated number of electrons on 3D grid     :       9.9972059952
  | Charge integration error                      :      -0.0027940048
  | Normalization factor for density and gradient :       1.0002794786

  Evaluating partitioned Hartree potential by multipole expansion.
  | Original multipole sum: apparent total charge =   0.218920E-14
  | Sum of charges compensated after spline to logarithmic grids =   0.884047E-06
  | Analytical far-field extrapolation by fixed multipoles:
  | Hartree multipole sum: apparent total charge =   0.193092E-14
  Summing up the Hartree potential.
  Time summed over all CPUs for potential: real work        2.833 s, elapsed        3.173 s
  | RMS charge density error from multipole expansion :   0.933935E-03
  | Average real-space part of the electrostatic potential :      0.08335366 eV

  Integrating Hamiltonian matrix: batch-based integration.
  Time summed over all CPUs for integration: real work        1.076 s, elapsed        1.168 s

  Updating Kohn-Sham eigenvalues and eigenvectors using ELSI and the ELPA eigensolver.
  Starting ELPA eigensolver
  Finished transformation to standard eigenproblem
  | Time :     0.001 s
  Finished solving standard eigenproblem
  | Time :     0.004 s
  Finished back-transformation of eigenvectors
  | Time :     0.000 s

  Obtaining occupation numbers and electronic chemical potential using ELSI.
  | Note that, for insulating systems, the printed 'chemical potential' value is not uniquely defined.
  | It can be anywhere in the energy gap, as long as it correctly separates occupied and unoccupied states.
  | In systems with a gap, the physically relevant chemical potential is the VBM or HOMO.

  | Chemical potential (Fermi level):    -4.04875107 eV
  Highest occupied state (VBM) at     -8.31670254 eV (relative to internal zero)
  | Occupation number:      2.00000000
  | K-point:       1 at    0.000000    0.000000    0.000000 (in units of recip. lattice)

  Lowest unoccupied state (CBM) at    -2.86587065 eV (relative to internal zero)
  | Occupation number:      0.00000000
  | K-point:       1 at    0.000000    0.000000    0.000000 (in units of recip. lattice)

  ESTIMATED overall HOMO-LUMO gap:      5.45083189 eV between HOMO at k-point 1 and LUMO at k-point 1
  The gap value is above 0.2 eV. Unless you are using a very sparse k-point grid,
  this system is most likely an insulator or a semiconductor.

  Checking to see if s.c.f. parameters should be adjusted.
  The system likely has a gap. Increased the default Pulay mixing parameter (charge_mix_param). Value:   0.200000 .
  Kept the default occupation width. Value:   0.010000 eV.

  Total energy components:
  | Sum of eigenvalues            :         -41.81552696 Ha       -1137.85838206 eV
  | XC energy correction          :          -9.16564935 Ha        -249.41000867 eV
  | XC potential correction       :          11.78660643 Ha         320.72987957 eV
  | Free-atom electrostatic energy:         -35.82042518 Ha        -974.72336241 eV
  | Hartree energy correction     :          -1.36882494 Ha         -37.24762177 eV
  | Entropy correction            :           0.00000000 Ha           0.00000000 eV
  | ---------------------------
  | Total energy                  :         -76.38381999 Ha       -2078.50949535 eV
  | Total energy, T -> 0          :         -76.38381999 Ha       -2078.50949535 eV  <-- do not rely on this value for anything but (periodic) metals
  | Electronic free energy        :         -76.38381999 Ha       -2078.50949535 eV

  Derived energy quantities:
  | Kinetic energy                :          76.43538465 Ha        2079.91264122 eV
  | Electrostatic energy          :        -143.65355529 Ha       -3909.01212791 eV
  | Energy correction for multipole
  | error in Hartree potential    :          -0.00100954 Ha          -0.02747095 eV
  | Sum of eigenvalues per atom                           :        -379.28612735 eV
  | Total energy (T->0) per atom                          :        -692.83649845 eV  <-- do not rely on this value for anything but (periodic) metals
  | Electronic free energy per atom                       :        -692.83649845 eV
  Evaluating new KS density using the density matrix
  Evaluating density matrix
  Finished density matrix calculation
  | Time :     0.001 s
  Time summed over all CPUs for getting density from density matrix: real work        2.326 s, elapsed        2.701 s
  Integration grid: deviation in total charge (<rho> - N_e) =  -5.329071E-15

  Self-consistency convergence accuracy:
  | Change of charge density      :  0.2804E+00
  | Change of unmixed KS density  :  0.2355E-01
  | Change of sum of eigenvalues  :  0.3322E+02 eV
  | Change of total energy        :  0.1506E+01 eV


------------------------------------------------------------
  End self-consistency iteration #     2       :  max(cpu_time)    wall_clock(cpu1)
  | Time for this iteration                     :        0.560 s           0.557 s
  | Charge density update                       :        0.172 s           0.172 s
  | Density mixing & preconditioning            :        0.088 s           0.084 s
  | Hartree multipole update                    :        0.004 s           0.004 s
  | Hartree multipole summation                 :        0.212 s           0.211 s
  | Integration                                 :        0.076 s           0.076 s
  | Solution of K.-S. eqns.                     :        0.008 s           0.007 s
  | Total energy evaluation                     :        0.004 s           0.001 s

  Partial memory accounting:
  | Current value for overall tracked memory usage:
  |   Minimum:        0.723 MB (on task  5)
  |   Maximum:        0.727 MB (on task  0)
  |   Average:        0.724 MB
  | Peak value for overall tracked memory usage:
  |   Minimum:        3.852 MB (on task  4 after allocating gradient_basis_wave)
  |   Maximum:        5.316 MB (on task  5 after allocating gradient_basis_wave)
  |   Average:        4.654 MB
  | Largest tracked array allocation so far:
  |   Minimum:        1.176 MB (gradient_basis_wave on task  4)
  |   Maximum:        1.588 MB (gradient_basis_wave on task  5)
  |   Average:        1.406 MB
  Note:  These values currently only include a subset of arrays which are explicitly tracked.
  The "true" memory usage will be greater.
------------------------------------------------------------

------------------------------------------------------------
          Begin self-consistency iteration #    3

  Date     :  20221003, Time     :  094454.421
------------------------------------------------------------
  Pulay mixing of updated and previous charge densities.
  Renormalizing the density to the exact electron count on the 3D integration grid.
  | Formal number of electrons (from input files) :      10.0000000000
  | Integrated number of electrons on 3D grid     :       9.9983847952
  | Charge integration error                      :      -0.0016152048
  | Normalization factor for density and gradient :       1.0001615466

  Evaluating partitioned Hartree potential by multipole expansion.
  | Original multipole sum: apparent total charge =   0.565748E-14
  | Sum of charges compensated after spline to logarithmic grids =   0.633356E-06
  | Analytical far-field extrapolation by fixed multipoles:
  | Hartree multipole sum: apparent total charge =   0.526392E-14
  Summing up the Hartree potential.
  Time summed over all CPUs for potential: real work        2.857 s, elapsed        3.330 s
  | RMS charge density error from multipole expansion :   0.142434E-02
  | Average real-space part of the electrostatic potential :      0.09119887 eV

  Integrating Hamiltonian matrix: batch-based integration.
  Time summed over all CPUs for integration: real work        1.116 s, elapsed        1.246 s

  Updating Kohn-Sham eigenvalues and eigenvectors using ELSI and the ELPA eigensolver.
  Starting ELPA eigensolver
  Finished transformation to standard eigenproblem
  | Time :     0.001 s
  Finished solving standard eigenproblem
  | Time :     0.004 s
  Finished back-transformation of eigenvectors
  | Time :     0.000 s

  Obtaining occupation numbers and electronic chemical potential using ELSI.
  | Note that, for insulating systems, the printed 'chemical potential' value is not uniquely defined.
  | It can be anywhere in the energy gap, as long as it correctly separates occupied and unoccupied states.
  | In systems with a gap, the physically relevant chemical potential is the VBM or HOMO.

  | Chemical potential (Fermi level):    -4.99356462 eV
  Highest occupied state (VBM) at     -8.83898963 eV (relative to internal zero)
  | Occupation number:      2.00000000
  | K-point:       1 at    0.000000    0.000000    0.000000 (in units of recip. lattice)

  Lowest unoccupied state (CBM) at    -2.89864592 eV (relative to internal zero)
  | Occupation number:      0.00000000
  | K-point:       1 at    0.000000    0.000000    0.000000 (in units of recip. lattice)

  ESTIMATED overall HOMO-LUMO gap:      5.94034371 eV between HOMO at k-point 1 and LUMO at k-point 1
  The gap value is above 0.2 eV. Unless you are using a very sparse k-point grid,
  this system is most likely an insulator or a semiconductor.

  Total energy components:
  | Sum of eigenvalues            :         -42.11527910 Ha       -1146.01505304 eV
  | XC energy correction          :          -9.12831190 Ha        -248.39400496 eV
  | XC potential correction       :          11.73866068 Ha         319.42520922 eV
  | Free-atom electrostatic energy:         -35.82042518 Ha        -974.72336241 eV
  | Hartree energy correction     :          -1.06231120 Ha         -28.90695861 eV
  | Entropy correction            :           0.00000000 Ha           0.00000000 eV
  | ---------------------------
  | Total energy                  :         -76.38766671 Ha       -2078.61416981 eV
  | Total energy, T -> 0          :         -76.38766671 Ha       -2078.61416981 eV  <-- do not rely on this value for anything but (periodic) metals
  | Electronic free energy        :         -76.38766671 Ha       -2078.61416981 eV

  Derived energy quantities:
  | Kinetic energy                :          75.98092094 Ha        2067.54605447 eV
  | Electrostatic energy          :        -143.24027575 Ha       -3897.76621932 eV
  | Energy correction for multipole
  | error in Hartree potential    :          -0.00075077 Ha          -0.02042951 eV
  | Sum of eigenvalues per atom                           :        -382.00501768 eV
  | Total energy (T->0) per atom                          :        -692.87138994 eV  <-- do not rely on this value for anything but (periodic) metals
  | Electronic free energy per atom                       :        -692.87138994 eV
  Evaluating new KS density using the density matrix
  Evaluating density matrix
  Finished density matrix calculation
  | Time :     0.000 s
  Time summed over all CPUs for getting density from density matrix: real work        2.282 s, elapsed        2.749 s
  Integration grid: deviation in total charge (<rho> - N_e) =  -7.105427E-15

  Self-consistency convergence accuracy:
  | Change of charge density      :  0.1176E+00
  | Change of unmixed KS density  :  0.1828E+00
  | Change of sum of eigenvalues  : -0.8157E+01 eV
  | Change of total energy        : -0.1047E+00 eV


------------------------------------------------------------
  End self-consistency iteration #     3       :  max(cpu_time)    wall_clock(cpu1)
  | Time for this iteration                     :        0.580 s           0.579 s
  | Charge density update                       :        0.176 s           0.175 s
  | Density mixing & preconditioning            :        0.084 s           0.082 s
  | Hartree multipole update                    :        0.004 s           0.003 s
  | Hartree multipole summation                 :        0.232 s           0.229 s
  | Integration                                 :        0.084 s           0.081 s
  | Solution of K.-S. eqns.                     :        0.008 s           0.007 s
  | Total energy evaluation                     :        0.004 s           0.001 s

  Partial memory accounting:
  | Current value for overall tracked memory usage:
  |   Minimum:        0.723 MB (on task  5)
  |   Maximum:        0.727 MB (on task  0)
  |   Average:        0.724 MB
  | Peak value for overall tracked memory usage:
  |   Minimum:        3.852 MB (on task  4 after allocating gradient_basis_wave)
  |   Maximum:        5.316 MB (on task  5 after allocating gradient_basis_wave)
  |   Average:        4.654 MB
  | Largest tracked array allocation so far:
  |   Minimum:        1.176 MB (gradient_basis_wave on task  4)
  |   Maximum:        1.588 MB (gradient_basis_wave on task  5)
  |   Average:        1.406 MB
  Note:  These values currently only include a subset of arrays which are explicitly tracked.
  The "true" memory usage will be greater.
------------------------------------------------------------

------------------------------------------------------------
          Begin self-consistency iteration #    4

  Date     :  20221003, Time     :  094455.003
------------------------------------------------------------
  Pulay mixing of updated and previous charge densities.
  Renormalizing the density to the exact electron count on the 3D integration grid.
  | Formal number of electrons (from input files) :      10.0000000000
  | Integrated number of electrons on 3D grid     :       9.9967759542
  | Charge integration error                      :      -0.0032240458
  | Normalization factor for density and gradient :       1.0003225086

  Evaluating partitioned Hartree potential by multipole expansion.
  | Original multipole sum: apparent total charge =   0.745311E-14
  | Sum of charges compensated after spline to logarithmic grids =   0.937255E-06
  | Analytical far-field extrapolation by fixed multipoles:
  | Hartree multipole sum: apparent total charge =   0.669058E-14
  Summing up the Hartree potential.
  Time summed over all CPUs for potential: real work        2.976 s, elapsed        3.367 s
  | RMS charge density error from multipole expansion :   0.235838E-02
  | Average real-space part of the electrostatic potential :      0.14193071 eV

  Integrating Hamiltonian matrix: batch-based integration.
  Time summed over all CPUs for integration: real work        1.111 s, elapsed        1.207 s

  Updating Kohn-Sham eigenvalues and eigenvectors using ELSI and the ELPA eigensolver.
  Starting ELPA eigensolver
  Finished transformation to standard eigenproblem
  | Time :     0.001 s
  Finished solving standard eigenproblem
  | Time :     0.004 s
  Finished back-transformation of eigenvectors
  | Time :     0.000 s

  Obtaining occupation numbers and electronic chemical potential using ELSI.
  | Note that, for insulating systems, the printed 'chemical potential' value is not uniquely defined.
  | It can be anywhere in the energy gap, as long as it correctly separates occupied and unoccupied states.
  | In systems with a gap, the physically relevant chemical potential is the VBM or HOMO.

  | Chemical potential (Fermi level):    -3.87934958 eV
  Highest occupied state (VBM) at     -7.66700359 eV (relative to internal zero)
  | Occupation number:      2.00000000
  | K-point:       1 at    0.000000    0.000000    0.000000 (in units of recip. lattice)

  Lowest unoccupied state (CBM) at    -2.70490521 eV (relative to internal zero)
  | Occupation number:      0.00000000
  | K-point:       1 at    0.000000    0.000000    0.000000 (in units of recip. lattice)

  ESTIMATED overall HOMO-LUMO gap:      4.96209838 eV between HOMO at k-point 1 and LUMO at k-point 1
  The gap value is above 0.2 eV. Unless you are using a very sparse k-point grid,
  this system is most likely an insulator or a semiconductor.

  Total energy components:
  | Sum of eigenvalues            :         -41.69111124 Ha       -1134.47285831 eV
  | XC energy correction          :          -9.18702207 Ha        -249.99158994 eV
  | XC potential correction       :          11.81581804 Ha         321.52476780 eV
  | Free-atom electrostatic energy:         -35.82042518 Ha        -974.72336241 eV
  | Hartree energy correction     :          -1.49596764 Ha         -40.70735077 eV
  | Entropy correction            :           0.00000000 Ha           0.00000000 eV
  | ---------------------------
  | Total energy                  :         -76.37870810 Ha       -2078.37039363 eV
  | Total energy, T -> 0          :         -76.37870810 Ha       -2078.37039363 eV  <-- do not rely on this value for anything but (periodic) metals
  | Electronic free energy        :         -76.37870810 Ha       -2078.37039363 eV

  Derived energy quantities:
  | Kinetic energy                :          76.00501682 Ha        2068.20173659 eV
  | Electrostatic energy          :        -143.19670285 Ha       -3896.58054029 eV
  | Energy correction for multipole
  | error in Hartree potential    :          -0.00107462 Ha          -0.02924177 eV
  | Sum of eigenvalues per atom                           :        -378.15761944 eV
  | Total energy (T->0) per atom                          :        -692.79013121 eV  <-- do not rely on this value for anything but (periodic) metals
  | Electronic free energy per atom                       :        -692.79013121 eV
  Evaluating new KS density using the density matrix
  Evaluating density matrix
  Finished density matrix calculation
  | Time :     0.000 s
  Time summed over all CPUs for getting density from density matrix: real work        2.279 s, elapsed        2.700 s
  Integration grid: deviation in total charge (<rho> - N_e) =  -5.329071E-15

  Self-consistency convergence accuracy:
  | Change of charge density      :  0.1061E+00
  | Change of unmixed KS density  :  0.5889E-01
  | Change of sum of eigenvalues  :  0.1154E+02 eV
  | Change of total energy        :  0.2438E+00 eV


------------------------------------------------------------
  End self-consistency iteration #     4       :  max(cpu_time)    wall_clock(cpu1)
  | Time for this iteration                     :        0.604 s           0.601 s
  | Charge density update                       :        0.172 s           0.172 s
  | Density mixing & preconditioning            :        0.076 s           0.076 s
  | Hartree multipole update                    :        0.004 s           0.003 s
[...]
  0.000000000000000E+000  0.000000000000000E+000  0.000000000000000E+000
 FOU  0.000000000000000E+000  0.000000000000000E+000  0.000000000000000E+000
  0.000000000000000E+000  0.000000000000000E+000  0.000000000000000E+000
  0.000000000000000E+000  0.000000000000000E+000  0.000000000000000E+000
 FOU -4.664482795915285E-005 -1.277760960503140E-004  5.667904418410914E-006
 -1.504315812542142E-004 -8.870635183674463E-003 -4.131356368174055E-004
 -6.388893304623444E-007 -3.539106695769171E-005 -1.066866527431612E-003
 FOU  0.000000000000000E+000  0.000000000000000E+000  0.000000000000000E+000
  0.000000000000000E+000  0.000000000000000E+000  0.000000000000000E+000
  0.000000000000000E+000  0.000000000000000E+000  0.000000000000000E+000
  0.000000000000000E+000  0.000000000000000E+000  0.000000000000000E+000
  0.000000000000000E+000  0.000000000000000E+000  0.000000000000000E+000
  1.051568233890764E-005  9.249274700392079E-004  1.216333820958071E-003
  0.000000000000000E+000  0.000000000000000E+000  0.000000000000000E+000
  0.000000000000000E+000  0.000000000000000E+000  0.000000000000000E+000
  0.000000000000000E+000  0.000000000000000E+000  0.000000000000000E+000
 -7.812634541453536E-007  4.705432820308273E-005  4.479180160548657E-003
  0.000000000000000E+000  0.000000000000000E+000  0.000000000000000E+000
  End CPSCF iteration #     5                  :  max(cpu_time)    wall_clock(cpu1)
  | Time for this iteration                     :        1.352 s           1.348 s
  | first_order_DM                              :        0.004 s           0.003 s
  | first_order_density                         :        0.140 s           0.140 s
  | first_order_potential                       :        0.264 s           0.263 s
  | first_order_H                               :        0.936 s           0.935 s
  | Solution of Sternheimer eqns.               :        0.004 s           0.003 s
------------------------------------------------------------

--------------------- CPSCF ---------------------------------------
          Begin CP-self-consistency iteration #    6

  Date     :  20221003, Time     :  094528.283
------------------------------------------------------------

  CPSCF convergence accuracy:
  | Change of first_order_density_matrix     :  0.8823E-03
  Integrating first_order_rho: batch-based integration.
  Time summed over all CPUs for integration: real work        2.110 s, elapsed        2.587 s

  Evaluating partitioned Hartree potential by multipole expansion.
  | Original multipole sum: apparent total charge =   0.204161E-14
  | Sum of charges compensated after spline to logarithmic grids =   0.515142E-06
  | Analytical far-field extrapolation by fixed multipoles:
  | Hartree multipole sum: apparent total charge =   0.214000E-14
  Summing up the Hartree potential.
  Time summed over all CPUs for potential: real work        3.594 s, elapsed        3.884 s
  | RMS delta_rho error from multipole expansion :   0.211681E-01

  Integrating first-order-Hamiltonian matrix: batch-based integration.
  Time summed over all CPUs for integration: real work       13.958 s, elapsed       15.234 s
 FOH -3.287941143330944E-003 -1.135165996382370E-004 -5.682938962486668E-007
  5.718861255322842E-003  5.944442488780504E-004  5.430644827649946E-005
  2.612117800312478E-002  8.102078796196595E-004 -2.762472559163711E-006
 FOH  2.773597851134469E-002 -8.223322307654644E-005 -1.195001585029865E-004
  0.000000000000000E+000  8.536425237961736E-003  4.078597010941076E-003
  0.000000000000000E+000  0.000000000000000E+000  2.299053859891628E-002
 FOH  1.704964767286731E-002 -1.308714024483609E-002 -2.839599958168011E-004
  0.000000000000000E+000  1.576111897435884E-002 -3.376386670544353E-006
  0.000000000000000E+000  0.000000000000000E+000  8.089705884962484E-003
 FOH  0.000000000000000E+000  0.000000000000000E+000  0.000000000000000E+000
 FOH -1.288695924630282E-003  3.393482283253946E-003 -1.622062410071730E-003
 FOH  0.000000000000000E+000  0.000000000000000E+000  0.000000000000000E+000
  0.000000000000000E+000  0.000000000000000E+000  0.000000000000000E+000
  0.000000000000000E+000  0.000000000000000E+000  0.000000000000000E+000
 FOH  0.000000000000000E+000  0.000000000000000E+000  0.000000000000000E+000
  0.000000000000000E+000  0.000000000000000E+000  0.000000000000000E+000
  0.000000000000000E+000  0.000000000000000E+000  0.000000000000000E+000
 FOH  0.000000000000000E+000  0.000000000000000E+000  0.000000000000000E+000
 FOH  0.000000000000000E+000  0.000000000000000E+000  0.000000000000000E+000
  0.000000000000000E+000  0.000000000000000E+000  0.000000000000000E+000
  0.000000000000000E+000  0.000000000000000E+000  0.000000000000000E+000
 FOH  5.461204745762618E-002 -3.091206486821587E-002  7.169761040017135E-005
  5.020003231243419E-004 -9.006569244262359E-004  1.943564181635997E-002
  7.428815467990087E-004  7.908296041540903E-005 -2.905587407233502E-003
 FOH  8.279166903673171E-007 -7.080677054954019E-006  1.765721080979441E-005
 -2.847683361928946E-007 -8.133669138978004E-005  7.278794447601632E-005
 -8.402012338458734E-006  7.543537346896014E-005 -2.473767270940678E-004
  0.000000000000000E+000  0.000000000000000E+000  0.000000000000000E+000
 FOH -9.700181481331907E-004 -1.698895552205480E-004  3.206574257410039E-002
  1.344103068115936E-002 -1.403225473453111E-002  2.165108764629034E-003
  1.274689535772005E-003 -3.451146422405827E-004 -2.405786593912050E-002
  0.000000000000000E+000  0.000000000000000E+000  0.000000000000000E+000
 FOH -4.949672766011025E-003 -2.842532569277782E-004 -6.619635782594959E-003
  0.000000000000000E+000 -4.745698602688856E-003  1.192546827788558E-002
  0.000000000000000E+000  0.000000000000000E+000 -4.903635145937479E-003
 -7.798573768054029E-004 -2.128071970320381E-003  6.525500932162191E-002
 FOH  7.709667670568976E-004  4.645937942144457E-006  9.268194454291298E-003
  3.932834153028392E-006 -2.388812440383028E-004 -1.011294984236181E-004
 -5.364686292824271E-005  4.187694589469070E-003  4.859655138703017E-006
 FOH  1.454336573415829E-002  3.582933969767293E-003 -2.975426424684755E-005
  0.000000000000000E+000  1.470605080206200E-002 -2.127626518270751E-004
  0.000000000000000E+000  0.000000000000000E+000  1.539633087082140E-002
  4.346428903132837E-003 -5.980320015936260E-003 -6.162612873577014E-002
 FOH  0.000000000000000E+000  0.000000000000000E+000  0.000000000000000E+000
  0.000000000000000E+000  0.000000000000000E+000  0.000000000000000E+000
  0.000000000000000E+000  0.000000000000000E+000  0.000000000000000E+000
  0.000000000000000E+000  0.000000000000000E+000  0.000000000000000E+000
  0.000000000000000E+000  0.000000000000000E+000  0.000000000000000E+000
 FOU -2.725213765184646E-006 -1.048950239043129E-005  7.682581462776107E-007
  1.230513822193976E-002 -9.241052028863825E-004 -4.718191982374465E-005
  1.633787119373579E-003 -1.220280912432800E-003 -4.478035983338378E-003
 FOU  0.000000000000000E+000  0.000000000000000E+000  0.000000000000000E+000
  0.000000000000000E+000  0.000000000000000E+000  0.000000000000000E+000
  0.000000000000000E+000  0.000000000000000E+000  0.000000000000000E+000
 FOU  4.666848218540114E-005  1.503811601959866E-004  6.113910743033657E-007
  1.285482507911147E-004  8.871158640974869E-003  3.554670637017512E-005
 -5.447118306401557E-006  4.129575835632645E-004  1.067825783294951E-003
 FOU  0.000000000000000E+000  0.000000000000000E+000  0.000000000000000E+000
  0.000000000000000E+000  0.000000000000000E+000  0.000000000000000E+000
  0.000000000000000E+000  0.000000000000000E+000  0.000000000000000E+000
 FOU  0.000000000000000E+000  0.000000000000000E+000  0.000000000000000E+000
  0.000000000000000E+000  0.000000000000000E+000  0.000000000000000E+000
  0.000000000000000E+000  0.000000000000000E+000  0.000000000000000E+000
 FOU  0.000000000000000E+000  0.000000000000000E+000  0.000000000000000E+000
 FOU  0.000000000000000E+000  0.000000000000000E+000  0.000000000000000E+000
  0.000000000000000E+000  0.000000000000000E+000  0.000000000000000E+000
  0.000000000000000E+000  0.000000000000000E+000  0.000000000000000E+000
 FOU  0.000000000000000E+000  0.000000000000000E+000  0.000000000000000E+000
  0.000000000000000E+000  0.000000000000000E+000  0.000000000000000E+000
  0.000000000000000E+000  0.000000000000000E+000  0.000000000000000E+000
 FOU  2.724658168940309E-006 -1.230515332424704E-002 -1.633759765702692E-003
  1.048975556069507E-005  9.240952907111943E-004  1.220139330440934E-003
 -7.683150466040612E-007  4.718188787619355E-005  4.477955739199263E-003
 FOU  0.000000000000000E+000  0.000000000000000E+000  0.000000000000000E+000
  0.000000000000000E+000  0.000000000000000E+000  0.000000000000000E+000
  0.000000000000000E+000  0.000000000000000E+000  0.000000000000000E+000
 FOU  0.000000000000000E+000  0.000000000000000E+000  0.000000000000000E+000
 FOU  0.000000000000000E+000  0.000000000000000E+000  0.000000000000000E+000
 FOU -4.666866321615838E-005 -1.285490449989622E-004  5.451130469600158E-006
 -1.503793660459906E-004 -8.871146979098077E-003 -4.129802652107540E-004
 -6.114958041451558E-007 -3.554643961205722E-005 -1.067813180929718E-003
 FOU  2.330528202630306E-005  2.347808818278397E-004  8.110289866222829E-007
  2.481035812186560E-004  4.236765732927993E-004 -1.250638629321328E-006
  1.006031932850012E-005  4.102505572632212E-005  2.606373754128449E-004
 FOU  0.000000000000000E+000  0.000000000000000E+000  0.000000000000000E+000
  0.000000000000000E+000  0.000000000000000E+000  0.000000000000000E+000
  0.000000000000000E+000  0.000000000000000E+000  0.000000000000000E+000
  0.000000000000000E+000  0.000000000000000E+000  0.000000000000000E+000
 FOU -2.330599386451257E-005 -2.481017085588362E-004 -1.005287294775172E-005
  0.000000000000000E+000  0.000000000000000E+000  0.000000000000000E+000
  0.000000000000000E+000  0.000000000000000E+000  0.000000000000000E+000
  0.000000000000000E+000  0.000000000000000E+000  0.000000000000000E+000
 -2.347811536328329E-004 -4.236777659694661E-004 -4.102151017585284E-005
  0.000000000000000E+000  0.000000000000000E+000  0.000000000000000E+000
  0.000000000000000E+000  0.000000000000000E+000  0.000000000000000E+000
 -8.110949684675161E-007  1.254078662276820E-006 -2.606352041290860E-004

  CP-self-consistency cycle converged.

  End CPSCF iteration #     6                  :  max(cpu_time)    wall_clock(cpu1)
  | Time for this iteration                     :        1.400 s           1.398 s
  | first_order_DM                              :        0.004 s           0.003 s
  | first_order_density                         :        0.164 s           0.163 s
  | first_order_potential                       :        0.272 s           0.270 s
  | first_order_H                               :        0.956 s           0.954 s
  | Solution of Sternheimer eqns.               :        0.004 s           0.003 s
------------------------------------------------------------
dP_dE (Bohr^3) at every cycle:--->
 (13.2134994680298,0.000000000000000E+000) (-0.177579618552367,0.000000000000000E+000) (-0.228208021393672,0.000000000000000E+000)
 (-0.177558613878783,0.000000000000000E+000) (12.0097902734131,0.000000000000000E+000) (-9.183590580498360E-003,0.000000000000000E+000)
 (-0.228178401986983,0.000000000000000E+000) (-9.166071849281520E-003,0.000000000000000E+000) (16.2772459255137,0.000000000000000E+000)
DFPT polarizability (Bohr^3)        xx        yy        zz        xy        xz        yz
  | Polarizability:--->                        13.213499468                   12.009790273                   16.277245926                   -0.177579619                   -0.228208021                   -0.009183591

DFPT for dielectric_constant:--->  # PARSE DFPT_dielectric_tensor
               1.196843509414926            -0.002645430561449            -0.003399649571747
              -0.002645117651635             1.178911670634696            -0.000136809344358
              -0.003399208326945            -0.000136548365157             1.242484605939570

                                               :  max(cpu_time)    wall_clock(cpu1)
  | Time for  dielectric calculation            :        0.004 s           0.000 s
===========================================================================

------------------------------------------------------------------------------
  Final output of selected total energy values:

  The following output summarizes some interesting total energy values
  at the end of a run (AFTER all relaxation, molecular dynamics, etc.).

  | Total energy of the DFT / Hartree-Fock s.c.f. calculation      :          -2078.349683484 eV
  | Final zero-broadening corrected energy (caution - metals only) :          -2078.349683484 eV
  | For reference only, the value of 1 Hartree used in FHI-aims is :             27.211384500 eV
  | For reference only, the overall average (free atom contribution
  | + realspace contribution) of the electrostatic potential after
  | s.c.f. convergence is                                          :             -1.121018387 eV

  Before relying on these values, please be sure to understand exactly which
  total energy value is referred to by a given number. Different objects may
  all carry the same name 'total energy'. Definitions:

  Total energy of the DFT / Hartree-Fock s.c.f. calculation:
  | Note that this energy does not include ANY quantities calculated after the
  | s.c.f. cycle, in particular not ANY RPA, MP2, etc. many-body perturbation terms.

  Final zero-broadening corrected energy:
  | For metallic systems only, a broadening of the occupation numbers at the Fermi
  | level can be extrapolated back to zero broadening by an electron-gas inspired
  | formula. For all systems that are not real metals, this value can be
  | meaningless and should be avoided.

------------------------------------------------------------------------------
  Methods described in the following list of references were used in this FHI-aims run.
  If you publish the results, please make sure to cite these reference if they apply.
  FHI-aims is an academic code, and for our developers (often, Ph.D. students
  and postdocs), scientific credit in the community is essential.
  Thank you for helping us!

  For any use of FHI-aims, please cite:

    Volker Blum, Ralf Gehrke, Felix Hanke, Paula Havu, Ville Havu,
    Xinguo Ren, Karsten Reuter, and Matthias Scheffler
    'Ab initio molecular simulations with numeric atom-centered orbitals'
    Computer Physics Communications 180, 2175-2196 (2009)
    http://doi.org/10.1016/j.cpc.2009.06.022


  The provided symmetry information was generated with SPGlib:

    Atsushi Togo, Yusuke Seto, Dimitar Pashov
    SPGlib 1.7.3 obtained from http://spglib.sourceforge.net
    Copyright (C) 2008 Atsushi Togo


  The DFPT (perturbation by an electric field) part of the code was used.
  Here is the corresponding reference:

    Honghui Shang, Nathaniel Raimbault, Mariana Rossi,
    Christian Carbogno, Patrick Rinke and Matthias Scheffler,
    'All-Electron, Real-Space Perturbation Theory for Homogeneous
    Electric Fields: Theory, Implementation, and Application within dft'
    New Journal of Physics, 20(7):073040, 2018


  The ELSI infrastructure was used in your run to solve the Kohn-Sham electronic structure.
  Please check out http://elsi-interchange.org to learn more.
  If scalability is important for your project, please acknowledge ELSI by citing:

    V. W-z. Yu, F. Corsetti, A. Garcia, W. P. Huhn, M. Jacquelin, W. Jia,
    B. Lange, L. Lin, J. Lu, W. Mi, A. Seifitokaldani, A. Vazquez-Mayagoitia,
    C. Yang, H. Yang, and V. Blum
    'ELSI: A unified software interface for Kohn-Sham electronic structure solvers'
    Computer Physics Communications 222, 267-285 (2018).
    http://doi.org/10.1016/j.cpc.2017.09.007


  For the real-space grid partitioning and parallelization used in this calculation, please cite:

    Ville Havu, Volker Blum, Paula Havu, and Matthias Scheffler,
    'Efficient O(N) integration for all-electron electronic structure calculation'
    'using numerically tabulated basis functions'
    Journal of Computational Physics 228, 8367-8379 (2009).
    http://doi.org/10.1016/j.jcp.2009.08.008

  Of course, there are many other important community references, e.g., those cited in the
  above references. Our list is limited to references that describe implementations in the
  FHI-aims code. The reason is purely practical (length of this list) - please credit others as well.

------------------------------------------------------------
          Leaving FHI-aims.
          Date     :  20221003, Time     :  094529.690

          Computational steps:
          | Number of self-consistency cycles          :           35
          | Number of SCF (re)initializations          :            1
          | Number of coupled perturbed self-consistency cycles          :            0
          | Number of CPSCF (re)initializations          :            0

          Detailed time accounting                     :  max(cpu_time)    wall_clock(cpu1)
          | Total time                                  :       37.116 s          37.159 s
          | Preparation time                            :        0.152 s           0.169 s
          | Boundary condition initalization            :        0.048 s           0.047 s
          | Grid partitioning                           :        0.032 s           0.030 s
          | Preloading free-atom quantities on grid     :        0.084 s           0.080 s
          | Free-atom superposition energy              :        0.012 s           0.011 s
          | Total time for integrations                 :        1.336 s           1.312 s
          | Total time for solution of K.-S. equations  :        0.136 s           0.121 s
          | Total time for density update               :        2.620 s           2.598 s
          | Total time for mixing & preconditioning     :        1.220 s           1.177 s
          | Total time for Hartree multipole update     :        0.092 s           0.080 s
          | Total time for Hartree multipole sum        :        3.268 s           3.247 s
          | Total time for total energy evaluation      :        0.064 s           0.024 s
          | Total time first_order_DM                   :        0.104 s           0.087 s
          | Total time first_order_density              :        3.028 s           2.988 s
          | Total time first_order_potential            :        5.056 s           5.033 s
          | Total time first_order_H                    :       18.896 s          18.867 s
          | Total time solving of Sternheimer equations :        0.104 s           0.081 s
          | Total time for dielectric constant          :        0.004 s           0.000 s
          | Total time momentum matrix                  :        0.000 s           0.000 s

          Partial memory accounting:
          | Residual value for overall tracked memory usage across tasks:     0.000000 MB (should be 0.000000 MB)
          | Peak values for overall tracked memory usage:
          |   Minimum:        9.309 MB (on task  5 after allocating DFPT_pulay_mixing::pulay_mix::alphas)
          |   Maximum:        9.313 MB (on task  0 after allocating DFPT_pulay_mixing::pulay_mix::alphas)
          |   Average:        9.310 MB
          | Largest tracked array allocation:
          |   Minimum:        3.339 MB (DFPT_pulay_mixing::initialize_pulay_mixing::X_in_diffs on task  0)
          |   Maximum:        3.339 MB (DFPT_pulay_mixing::initialize_pulay_mixing::X_in_diffs on task  0)
          |   Average:        3.339 MB
          Note:  These values currently only include a subset of arrays which are explicitly tracked.
          The "true" memory usage will be greater.

          Have a nice day.
------------------------------------------------------------
