------------------------------------------------------------
          Invoking FHI-aims ...

          When using FHI-aims, please cite the following reference:

            Volker Blum, Ralf Gehrke, Felix Hanke, Paula Havu,
            Ville Havu, Xinguo Ren, Karsten Reuter, and Matthias Scheffler,
            'Ab Initio Molecular Simulations with Numeric Atom-Centered Orbitals',
            Computer Physics Communications 180, 2175-2196 (2009)

          In addition, many other developments in FHI-aims are likely important for
          your particular application. A partial list of references is given at the end of
          this file. Thank you for giving credit to the authors of these developments.

          For any questions about FHI-aims, please visit our slack channel at

            https://fhi-aims.slack.com

          and our main development and support site at

            https://aims-git.rz-berlin.mpg.de .

          The latter site, in particular, has a wiki to collect information, as well
          as an issue tracker to log discussions, suggest improvements, and report issues
          or bugs. https://aims-git.rz-berlin.mpg.de is also the main development site
          of the project and all new and updated code versions can be obtained there.
          Please send an email to aims-coordinators@fhi-berlin.mpg.de and we will add
          you to these sites. They are for you and everyone is welcome there.

------------------------------------------------------------



  Date     :  20221003, Time     :  100748.989
  Time zero on CPU 1             :   0.480000000000000E-01  s.
  Internal wall clock time zero  :           434023668.989  s.

  FHI-aims created a unique identifier for this run for later identification
  aims_uuid : 61FBB4AD-15C0-4475-A3B4-AD3BA94D8C53

  Build configuration of the current instance of FHI-aims
  -------------------------------------------------------
  FHI-aims version      : 220810
  Commit number         : eae8be818
  CMake host system     : Linux-4.9.0-16-amd64
  CMake version         : 3.17.3
  Fortran compiler      : /opt/easybuild/software/impi/2017.3.196-iccifort-2017.4.196-GCC-6.4.0-2.28/bin64/mpiifort (Intel) version 17.0.4.20170411
  Fortran compiler flags: -O3 -ip -fp-model precise
  C compiler            : /opt/easybuild/software/icc/2017.4.196-GCC-6.4.0-2.28/compilers_and_libraries_2017.4.196/linux/bin/intel64/icc (Intel) version 17.0.4.20170411
  C compiler flags      : -O3 -ip -fp-model precise -std=gnu99
  Using MPI
  Using ScaLAPACK
  Using LibXC
  Using i-PI
  Using RLSY
  Linking against: /opt/easybuild/software/imkl/2017.3.196-iimpi-2017b/mkl/lib/intel64/libmkl_intel_lp64.so
                   /opt/easybuild/software/imkl/2017.3.196-iimpi-2017b/mkl/lib/intel64/libmkl_sequential.so
                   /opt/easybuild/software/imkl/2017.3.196-iimpi-2017b/mkl/lib/intel64/libmkl_core.so
                   /opt/easybuild/software/imkl/2017.3.196-iimpi-2017b/mkl/lib/intel64/libmkl_blacs_intelmpi_lp64.so
                   /opt/easybuild/software/imkl/2017.3.196-iimpi-2017b/mkl/lib/intel64/libmkl_scalapack_lp64.so

  Using       16 parallel tasks.
  Task        0 on host mpsd-hpc-ibm-056 reporting.
  Task        1 on host mpsd-hpc-ibm-056 reporting.
  Task        2 on host mpsd-hpc-ibm-056 reporting.
  Task        3 on host mpsd-hpc-ibm-056 reporting.
  Task        4 on host mpsd-hpc-ibm-057 reporting.
  Task        5 on host mpsd-hpc-ibm-057 reporting.
  Task        6 on host mpsd-hpc-ibm-057 reporting.
  Task        7 on host mpsd-hpc-ibm-057 reporting.
  Task        8 on host mpsd-hpc-ibm-058 reporting.
  Task        9 on host mpsd-hpc-ibm-058 reporting.
  Task       10 on host mpsd-hpc-ibm-058 reporting.
  Task       11 on host mpsd-hpc-ibm-058 reporting.
  Task       12 on host mpsd-hpc-ibm-059 reporting.
  Task       13 on host mpsd-hpc-ibm-059 reporting.
  Task       14 on host mpsd-hpc-ibm-059 reporting.
  Task       15 on host mpsd-hpc-ibm-059 reporting.

  Performing system and environment tests:
  | Environment variable OMP_NUM_THREADS correctly set to 1.
  | Checking for ScaLAPACK...
  | Testing pdtran()...
  | All pdtran() tests passed.

  Obtaining array dimensions for all initial allocations:
  
  -----------------------------------------------------------------------
  Parsing control.in (first pass over file, find array dimensions only).
  The contents of control.in will be repeated verbatim below
  unless switched off by setting 'verbatim_writeout .false.' .
  in the first line of control.in .
  -----------------------------------------------------------------------
  
  #########################################################################################
  #
  #  Volker Blum, 2017 : Test run input file control.in for simple H2O
  #
  #########################################################################################
  #
  #  Physical model
  #
    xc                 pbe
    spin               none
    relativistic       none
    charge             0.
  
  #  ri_density_restart         write
  #  ri_rho1 write
  #  ri_full_output .True.
  #  ri_output_density_only .True.
    DFPT dielectric
    sc_accuracy_rho    1d-6
  #  use_calculate_fock_matrix_old .false.
  #  output cube total_density
    k_grid 1 1 1
    wave_threshold 1e-8
  
  # prodbas_threshold 1e-2
  #
  #  Relaxation
  #
  #  relax_geometry   bfgs 1.e-2
  #
  
  ################################################################################
  
  ################################################################################
  #
  #  FHI-aims code project
  #  VB, Fritz-Haber Institut, 2009
  #
  #  Suggested "light" defaults for O atom (to be pasted into control.in file)
  #  Be sure to double-check any results obtained with these settings for post-processing,
  #  e.g., with the "tight" defaults and larger basis sets.
  #
  ################################################################################
    species        O
  #     global species definitions
      nucleus             8
      mass                15.9994
  #
      l_hartree           6
  #
      cut_pot             4.0  2.0  1.0
      basis_dep_cutoff    1e-4
  #
      radial_base         36 7.0
      radial_multiplier   2
       angular_grids specified
        division   0.2659   50
        division   0.4451  110
        division   0.6052  194
        division   0.7543  302
        division   0.8014  434
  #      division   0.8507  590
  #      division   0.8762  770
  #      division   0.9023  974
  #      division   1.2339 1202
  #      outer_grid 974
        outer_grid 434
  ################################################################################
  #
  #  Definition of "minimal" basis
  #
  ################################################################################
  #     valence basis states
      valence      2  s   2.
      valence      2  p   4.
  #     ion occupancy
      ion_occ      2  s   1.
      ion_occ      2  p   3.
  ################################################################################
  #
  #  Suggested additional basis functions. For production calculations,
  #  uncomment them one after another (the most important basis functions are
  #  listed first).
  #
  #
  ################################################################################
  #  "First tier" - improvements: -699.05 meV to -159.38 meV
       hydro 2 p 1.8
       hydro 3 d 7.6
       hydro 3 s 6.4
  #  "Second tier" - improvements: -49.91 meV to -5.39 meV
       hydro 4 f 11.6
       hydro 3 p 6.2
       hydro 3 d 5.6
       hydro 5 g 17.6
       hydro 1 s 0.75
  #  "Third tier" - improvements: -2.83 meV to -0.50 meV
  #     ionic 2 p auto
  #     hydro 4 f 10.8
  #     hydro 4 d 4.7
  #     hydro 2 s 6.8
  #  "Fourth tier" - improvements: -0.40 meV to -0.12 meV
  #     hydro 3 p 5
  #     hydro 3 s 3.3
  #     hydro 5 g 15.6
  #     hydro 4 f 17.6
  #     hydro 4 d 14
  # Further basis functions - -0.08 meV and below
  #     hydro 3 s 2.1
  #     hydro 4 d 11.6
  #     hydro 3 p 16
  #     hydro 2 s 17.2
  ################################################################################
  #
  #  FHI-aims code project
  #  VB, Fritz-Haber Institut, 2009
  #
  #  Suggested "light" defaults for H atom (to be pasted into control.in file)
  #  Be sure to double-check any results obtained with these settings for post-processing,
  #  e.g., with the "tight" defaults and larger basis sets.
  #
  ################################################################################
    species        H
  #     global species definitions
      nucleus             1
      mass                1.00794
  #
      l_hartree           6
  #
      cut_pot             4.0  2.0  1.0
      basis_dep_cutoff    1e-4
  #
      radial_base         24 7.0
      radial_multiplier   2
      angular_grids       specified
        division   0.2421   50
        division   0.3822  110
        division   0.4799  194
        division   0.5341  302
        division   0.5626  434
  #      division   0.5922  590
  #      division   0.6542  770
  #      division   0.6868 1202
  #      outer_grid  770
        outer_grid  434
  ################################################################################
  #
  #  Definition of "minimal" basis
  #
  ################################################################################
  #     valence basis states
      valence      1  s   1.
  #     ion occupancy
      ion_occ      1  s   0.5
  ################################################################################
  #
  #  Suggested additional basis functions. For production calculations,
  #  uncomment them one after another (the most important basis functions are
  #  listed first).
  #
  #  Basis constructed for dimers: 0.5 A, 0.7 A, 1.0 A, 1.5 A, 2.5 A
  #
  ################################################################################
  #  "First tier" - improvements: -1014.90 meV to -62.69 meV
       hydro 2 s 2.1
       hydro 2 p 3.5
  #  "Second tier" - improvements: -12.89 meV to -1.83 meV
      hydro 1 s 0.85
      hydro 2 p 3.7
      hydro 2 s 1.2
      hydro 3 d 7
  #  "Third tier" - improvements: -0.25 meV to -0.12 meV
  #    hydro 4 f 11.2
  #    hydro 3 p 4.8
  #    hydro 4 d 9
  #    hydro 3 s 3.2
  #
  
  
  -----------------------------------------------------------------------
  Completed first pass over input file control.in .
  -----------------------------------------------------------------------
  
  
  -----------------------------------------------------------------------
  Parsing geometry.in (first pass over file, find array dimensions only).
  The contents of geometry.in will be repeated verbatim below
  unless switched off by setting 'verbatim_writeout .false.' .
  in the first line of geometry.in .
  -----------------------------------------------------------------------
  
  #=======================================================
  # FHI-aims file: qmdata/data/geoms/306.in
  # Created using the Atomic Simulation Environment (ASE)
  # Wed Sep 21 12:30:23 2022
  #=======================================================
  lattice_vector 5.0000000000000000 0.0000000000000000 0.0000000000000000
  lattice_vector 0.0000000000000000 5.0000000000000000 0.0000000000000000
  lattice_vector 0.0000000000000000 0.0000000000000000 5.0000000000000000
  atom 0.1012627400000000 0.0013843100000000 0.0056493300000000 O
  atom -0.8111987600000000 -0.6910836900000000 -0.0452558500000000 H
  atom -0.7960459200000000 0.6691119300000000 -0.0444104900000000 H
  
  -----------------------------------------------------------------------
  Completed first pass over input file geometry.in .
  -----------------------------------------------------------------------
  

  Basic array size parameters:
  | Number of species                 :        2
  | Number of atoms                   :        3
  | Number of lattice vectors         :        3
  | Max. basis fn. angular momentum   :        4
  | Max. atomic/ionic basis occupied n:        2
  | Max. number of basis fn. types    :        2
  | Max. radial fns per species/type  :        8
  | Max. logarithmic grid size        :     1301
  | Max. radial integration grid size :       73
  | Max. angular integration grid size:      434
  | Max. angular grid division number :        8
  | Radial grid for Hartree potential :     1301
  | Number of spin channels           :        1

------------------------------------------------------------
          Reading file control.in.
------------------------------------------------------------
  XC: Using PBE gradient-corrected functionals.
  Spin treatment: No spin polarisation.
  Non-relativistic treatment of kinetic energy.
  Charge =   0.000000E+00: Neutral system requested explicitly.
  DFPT calculation will begin after the DFT/HF calculation.
  Convergence accuracy of self-consistent charge density:  0.1000E-05
  Found k-point grid:         1         1         1
  Threshold value for wave function integration:  0.1000E-07
 
  Reading configuration options for species O                   .
  | Found nuclear charge :   8.0000
  | Found atomic mass :    15.9994000000000      amu
  | Found l_max for Hartree potential  :   6
  | Found cutoff potl. onset [A], width [A], scale factor :    4.00000    2.00000    1.00000
  | Threshold for basis-dependent cutoff potential is   0.100000E-03
  | Found data for basic radial integration grid :    36 points, outermost radius =    7.000 A
  | Found multiplier for basic radial grid :   2
  | Found angular grid specification: user-specified.
  | Specified grid contains     6 separate shells.
  | Check grid settings after all constraints further below.
  | Found free-atom valence shell :  2 s   2.000
  | Found free-atom valence shell :  2 p   4.000
  | No ionic wave fns used. Skipping ion_occ.
  | No ionic wave fns used. Skipping ion_occ.
  | Found hydrogenic basis function :  2 p   1.800
  | Found hydrogenic basis function :  3 d   7.600
  | Found hydrogenic basis function :  3 s   6.400
  | Found hydrogenic basis function :  4 f  11.600
  | Found hydrogenic basis function :  3 p   6.200
  | Found hydrogenic basis function :  3 d   5.600
  | Found hydrogenic basis function :  5 g  17.600
  | Found hydrogenic basis function :  1 s   0.750
  Species O                   : Missing cutoff potential type.
  Defaulting to exp(1/x)/(1-x)^2 type cutoff potential.
  Species O : No 'logarithmic' tag. Using default grid for free atom:
  | Default logarithmic grid data [bohr] : 0.1000E-03 0.1000E+03 0.1012E+01
  Species O : On-site basis accuracy parameter (for Gram-Schmidt orthonormalisation) not specified.
  Using default value basis_acc =  0.1000000E-03.
  Species O                   : Using default innermost maximum threshold i_radial=  2 for radial functions.
  Species O                   : Default cutoff onset for free atom density etc. : 0.40000000E+01 AA.
  Species O                   : Basic radial grid will be enhanced according to radial_multiplier =   2, to contain    73 grid points.
 
  Reading configuration options for species H                   .
  | Found nuclear charge :   1.0000
  | Found atomic mass :    1.00794000000000      amu
  | Found l_max for Hartree potential  :   6
  | Found cutoff potl. onset [A], width [A], scale factor :    4.00000    2.00000    1.00000
  | Threshold for basis-dependent cutoff potential is   0.100000E-03
  | Found data for basic radial integration grid :    24 points, outermost radius =    7.000 A
  | Found multiplier for basic radial grid :   2
  | Found angular grid specification: user-specified.
  | Specified grid contains     6 separate shells.
  | Check grid settings after all constraints further below.
  | Found free-atom valence shell :  1 s   1.000
  | No ionic wave fns used. Skipping ion_occ.
  | Found hydrogenic basis function :  2 s   2.100
  | Found hydrogenic basis function :  2 p   3.500
  | Found hydrogenic basis function :  1 s   0.850
  | Found hydrogenic basis function :  2 p   3.700
  | Found hydrogenic basis function :  2 s   1.200
  | Found hydrogenic basis function :  3 d   7.000
  Species H                   : Missing cutoff potential type.
  Defaulting to exp(1/x)/(1-x)^2 type cutoff potential.
  Species H : No 'logarithmic' tag. Using default grid for free atom:
  | Default logarithmic grid data [bohr] : 0.1000E-03 0.1000E+03 0.1012E+01
  Species H : On-site basis accuracy parameter (for Gram-Schmidt orthonormalisation) not specified.
  Using default value basis_acc =  0.1000000E-03.
  Species H                   : Using default innermost maximum threshold i_radial=  2 for radial functions.
  Species H                   : Default cutoff onset for free atom density etc. : 0.40000000E+01 AA.
  Species H                   : Basic radial grid will be enhanced according to radial_multiplier =   2, to contain    49 grid points.
 
  Finished reading input file 'control.in'.
 
------------------------------------------------------------


------------------------------------------------------------
          Reading geometry description geometry.in.
------------------------------------------------------------
  | The smallest distance between any two atoms is         1.11961109 AA.
  | The first atom of this pair is atom number                      1 .
  | The second atom of this pair is atom number                     3 .
  | Wigner-Seitz cell of the first atom image           0     0     0 .
  | (The Wigner-Seitz cell of the second atom is 0 0 0  by definition.)

  Symmetry information by spglib:
  | Precision set to  0.1E-04
  | Number of Operations  : 1
  | Space group           : 1
  | International         : P1  5
  | Schoenflies           : C1^1
  Input structure read successfully.
  The structure contains        3 atoms,  and a total of         10.000 electrons.

  Input geometry:
  | Unit cell:
  |        5.00000000        0.00000000        0.00000000
  |        0.00000000        5.00000000        0.00000000
  |        0.00000000        0.00000000        5.00000000
  | Atomic structure:
  |       Atom                x [A]            y [A]            z [A]
  |    1: Species O             0.10126274        0.00138431        0.00564933
  |    2: Species H            -0.81119876       -0.69108369       -0.04525585
  |    3: Species H            -0.79604592        0.66911193       -0.04441049

  Lattice parameters for 3D lattice (in Angstroms) :     5.000000    5.000000    5.000000
  Angle(s) between unit vectors (in degrees)       :    90.000000   90.000000   90.000000


  Quantities derived from the lattice vectors (in Angstrom^-1):
  | Reciprocal lattice vector 1:  1.256637  0.000000  0.000000
  | Reciprocal lattice vector 2:  0.000000  1.256637  0.000000
  | Reciprocal lattice vector 3:  0.000000  0.000000  1.256637
  | Unit cell volume                               :   0.125000E+03  Angstrom^3

  Fractional coordinates:
                         L1                L2                L3
       atom_frac         0.02025255        0.00027686        0.00112987  O
       atom_frac        -0.16223975       -0.13821674       -0.00905117  H
       atom_frac        -0.15920918        0.13382239       -0.00888210  H

 
  Finished reading input file 'geometry.in'.
 

 
  Consistency checks for stacksize environment parameter are next.
 
  | Maximum stacksize for task 0: unlimited
  | Maximum stacksize for task 1: unlimited
  | Maximum stacksize for task 2: unlimited
  | Maximum stacksize for task 3: unlimited
  | Maximum stacksize for task 4: unlimited
  | Maximum stacksize for task 5: unlimited
  | Maximum stacksize for task 6: unlimited
  | Maximum stacksize for task 7: unlimited
  | Maximum stacksize for task 8: unlimited
  | Maximum stacksize for task 9: unlimited
  | Maximum stacksize for task 10: unlimited
  | Maximum stacksize for task 11: unlimited
  | Maximum stacksize for task 12: unlimited
  | Maximum stacksize for task 13: unlimited
  | Maximum stacksize for task 14: unlimited
  | Maximum stacksize for task 15: unlimited
  | Current stacksize for task 0: unlimited
  | Current stacksize for task 1: unlimited
  | Current stacksize for task 2: unlimited
  | Current stacksize for task 3: unlimited
  | Current stacksize for task 4: unlimited
  | Current stacksize for task 5: unlimited
  | Current stacksize for task 6: unlimited
  | Current stacksize for task 7: unlimited
  | Current stacksize for task 8: unlimited
  | Current stacksize for task 9: unlimited
  | Current stacksize for task 10: unlimited
  | Current stacksize for task 11: unlimited
  | Current stacksize for task 12: unlimited
  | Current stacksize for task 13: unlimited
  | Current stacksize for task 14: unlimited
  | Current stacksize for task 15: unlimited
 
  Consistency checks for the contents of control.in are next.
 
  MPI_IN_PLACE appears to work with this MPI implementation.
  | Keeping use_mpi_in_place .true. (see manual).
  Target number of points in a grid batch is not set. Defaulting to  100
  Method for grid partitioning is not set. Defaulting to parallel hash+maxmin partitioning.
  Batch size limit is not set. Defaulting to    200
  By default, will store active basis functions for each batch.
  If in need of memory, prune_basis_once .false. can be used to disable this option.
  communication_type for Hartree potential was not specified.
  Defaulting to calc_hartree .
  Defaulting to Pulay charge density mixer.
  Pulay mixer: Number of relevant iterations not set.
  Defaulting to    8 iterations.
  Pulay mixer: Number of initial linear mixing iterations not set.
  Defaulting to    0 iterations.
  Work space size for distributed Hartree potential not set.
  Defaulting to   0.200000E+03 MB.
  Mixing parameter for charge density mixing has not been set.
  Using default: charge_mix_param =     0.0500.
  The mixing parameter will be adjusted in iteration number     2 of the first full s.c.f. cycle only.
  Algorithm-dependent basis array size parameters:
  | n_max_pulay                         :        8
  Maximum number of self-consistency iterations not provided.
  Presetting  1000 iterations.
  Presetting      1001 iterations before the initial mixing cycle
  is restarted anyway using the sc_init_iter criterion / keyword.
  Presetting a factor      1.000 between actual scf density residual
  and density convergence criterion sc_accuracy_rho below which sc_init_iter
  takes no effect.
  Calculation of forces was not defined in control.in. No forces will be calculated.
  Geometry relaxation not requested: no relaxation will be performed.
  No accuracy limit for integral partition fn. given. Defaulting to  0.1000E-14.
  No occupation type (smearing scheme) given. Defaulting to Gaussian broadening, width =  0.1000E-01 eV.
  The width will be adjusted in iteration number     2 of the first full s.c.f. cycle only.
  S.C.F. convergence parameters will be adjusted in iteration number     2 of the first full s.c.f. cycle only.
  No accuracy for occupation numbers given. Defaulting to  0.1000E-12.
  No threshold value for occupation numbers given. Defaulting to  0.0000E+00.
  No accuracy for fermi level given. Defaulting to  0.1000E-19.
  Maximum # of iterations to find E_F not set. Defaulting to  200.
  Preferred method for the eigenvalue solver ('KS_method') not specified in 'control.in'.
  Calling BLACS routine to test compilation state
  Since ScaLAPACK support is enabled, defaulting to ELPA (via ELSI).
  Will not use alltoall communication since running on < 1024 CPUs.
  Threshold for basis singularities not set.
  Default threshold for basis singularities:  0.1000E-04
  partition_type (choice of integration weights) for integrals was not specified.
  | Using a version of the partition function of Stratmann and coworkers ('stratmann_sparse').
  | At each grid point, the set of atoms used to build the partition table is smoothly restricted to
  | only those atoms whose free-atom density would be non-zero at that grid point.
  Partitioning for Hartree potential was not defined. Using partition_type for integrals.
  | Adjusted default value of keyword multip_moments_threshold to:       0.10000000E-11
  | This value may affect high angular momentum components of the Hartree potential in periodic systems.
  Angular momentum expansion for Kerker preconditioner not set explicitly.
  | Using default value of   0
  No explicit requirement for turning off preconditioner.
  | By default, it will be turned off when the charge convergence reaches
  | sc_accuracy_rho  =   0.100000E-05
  No special mixing parameter while Kerker preconditioner is on.
  Using default: charge_mix_param =     0.0500.
  No q(lm)/r^(l+1) cutoff set for long-range Hartree potential.
  | Using default value of  0.100000E-09 .
  | Verify using the multipole_threshold keyword.
  Defaulting to new monopole extrapolation.
  Density update method: automatic selection selected.
  Using density matrix based charge density update.
  Using density matrix based charge density update.
  Using packed matrix style: index .
  Defaulting to use time-reversal symmetry for k-point grid.
  Charge integration errors on the 3D integration grid will be compensated
  by explicit normalization and distribution of residual charges.
  Use the "compensate_multipole_errors" flag to change this behaviour.
 
  Consistency checks for the contents of geometry.in are next.
 

  Range separation radius for Ewald summation (hartree_convergence_parameter):      5.00000000 bohr.
  Number of empty states per atom not set in control.in .
  | Since you are using a method that relies on the unoccupied spectrum
  | (MP2,GW,RPA et al.), will use the full Hamiltonian size (see below)
  | as the max. possible number of states (occupied plus empty).

  Structure-dependent array size parameters: 
  | Maximum number of distinct radial functions  :       18
  | Maximum number of basis functions            :       69
  | Number of Kohn-Sham states (occupied + empty):       69
------------------------------------------------------------

------------------------------------------------------------
          Preparing all fixed parts of the calculation.
------------------------------------------------------------
  Determining machine precision:
    2.225073858507201E-308
  Setting up grids for atomic and cluster calculations.

  Creating wave function, potential, and density for free atoms.
  Runtime choices for atomic solver:
  | atomic solver xc        : PBE
  | compute density gradient: 1
  | compute kinetic density : F

  Species: O

  List of occupied orbitals and eigenvalues:
    n    l              occ      energy [Ha]    energy [eV]
    1    0           2.0000       -18.898576      -514.2564
    2    0           2.0000        -0.878795       -23.9132
    2    1           4.0000        -0.332075        -9.0362


  Species: H

  List of occupied orbitals and eigenvalues:
    n    l              occ      energy [Ha]    energy [eV]
    1    0           1.0000        -0.238382        -6.4867


  Adding cutoff potential to free-atom effective potential.
  Creating fixed part of basis set: Ionic, confined, hydrogenic.
 
  O                    hydrogenic:
 
  List of hydrogenic basis orbitals: 
    n    l      effective z      eigenvalue [eV]  inner max. [A]     outer max. [A]     outer radius [A]   
    2    1         1.800000       -11.0118           1.178562           1.178562           5.567066
    3    2         7.600000       -87.3182           0.624125           0.624125           3.764702
    3    0         6.400000       -61.9209           0.061167           1.081902           4.522403
    4    3        11.600000      -114.4238           0.731631           0.731631           3.811008
    3    1         6.200000       -58.1113           0.255680           1.030270           4.522403
    3    2         5.600000       -47.4081           0.847233           0.847233           4.578029
    5    4        17.600000      -168.5799           0.749740           0.749740           3.629133
    1    0         0.750000        -7.6499           0.705284           0.705284           5.567066
 
 
  H                    hydrogenic:
 
  List of hydrogenic basis orbitals: 
    n    l      effective z      eigenvalue [eV]  inner max. [A]     outer max. [A]     outer radius [A]   
    2    0         2.100000       -14.9965           0.193243           1.317208           5.573719
    2    1         3.500000       -41.6672           0.602369           0.602369           4.259334
    1    0         0.850000        -9.8292           0.624871           0.624871           5.573719
    2    1         3.700000       -46.5653           0.573622           0.573622           4.105953
    2    0         1.200000        -4.5995           0.334980           2.228188           5.642276
    3    2         7.000000       -74.0753           0.680699           0.680699           3.958095
 
  Creating atomic-like basis functions for current effective potential.

  Species O                   :

  List of atomic basis orbitals and eigenvalues:
    n    l      energy [Ha]    energy [eV]    outer radius [A]
    1    0       -18.898576      -514.2564       1.807907
    2    0        -0.878795       -23.9132       5.366593
    2    1        -0.332075        -9.0362       5.499423


  Species H                   :

  List of atomic basis orbitals and eigenvalues:
    n    l      energy [Ha]    energy [eV]    outer radius [A]
    1    0        -0.238382        -6.4867       5.573719

  Assembling full basis from fixed parts.
  | Species O :   atomic orbital   1 s accepted.
  | Species O :    hydro orbital   3 s accepted.
  | Species O :   atomic orbital   2 s accepted.
  | Species O :    hydro orbital   1 s accepted.
  | Species O :    hydro orbital   3 p accepted.
  | Species O :   atomic orbital   2 p accepted.
  | Species O :    hydro orbital   2 p accepted.
  | Species O :    hydro orbital   3 d accepted.
  | Species O :    hydro orbital   3 d accepted.
  | Species O :    hydro orbital   4 f accepted.
  | Species O :    hydro orbital   5 g accepted.
  | Species H :   atomic orbital   1 s accepted.
  | Species H :    hydro orbital   2 s accepted.
  | Species H :    hydro orbital   1 s accepted.
  | Species H :    hydro orbital   2 s accepted.
  | Species H :    hydro orbital   2 p accepted.
  | Species H :    hydro orbital   2 p accepted.
  | Species H :    hydro orbital   3 d accepted.
 
  Basis size parameters after reduction:
  | Total number of radial functions:       18
  | Total number of basis functions :       69
 
  Per-task memory consumption for arrays in subroutine allocate_ext:
  |           4.499020MB.
  Testing on-site integration grid accuracy.
  |  Species  Function  <phi|h_atom|phi> (log., in eV)  <phi|h_atom|phi> (rad., in eV)
           1        1               -514.2564144315               -514.2564099626
           1        2                 15.1726678541                 15.1726530877
           1        3                -21.5447785304                -21.5447874973
           1        4                 14.4944558459                 14.4944698284
           1        5                 20.8882174564                 20.8882178906
           1        6                 -2.4850315909                 -2.4850322289
           1        7                 13.8600193195                 13.8599826966
           1        8                 45.8243383616                 45.8243383675
           1        9                 52.1840606465                 52.1840622440
           1       10                 85.4074185510                 85.4074185819
           1       11                142.0983717302                142.0983717339
           2       12                 -6.4869821809                 -6.4870742227
           2       13                 13.5044133542                 13.5041049177
           2       14                 32.7854418792                 32.7779770519
           2       15                 33.7995553101                 33.7152624900 ***
           2       16                 28.8558651799                 28.8558652046
           2       17                 59.6361831893                 59.6362535845
           2       18                 60.2733718049                 60.2733715484
 * Note: Onsite integrals marked "***" above are less accurate than
 * onsite_accuracy_threshold =    0.03000 eV. Usually, this is harmless.
 * When in doubt, tighten the "radial" and/or "radial_multiplier" flags to check.

  Preparing densities etc. for the partition functions (integrals / Hartree potential).

  Preparations completed.
  max(cpu_time)          :      0.136 s.
  Wall clock time (cpu1) :      0.141 s.
------------------------------------------------------------

  Initializing index lists of integration centers etc. from given atomic structure:
  Mapping all atomic coordinates to central unit cell.

  Initializing the k-points
  Using symmetry for reducing the k-points
  | k-points reduced from:        1 to        1
  | Number of k-points                             :         1
  | Consuming          0 KiB for k_phase_exx.
  The eigenvectors in the calculations are REAL.
  | Number of basis functions in the Hamiltonian integrals :      1551
  | Number of basis functions in a single unit cell        :        69
  | Number of centers in hartree potential         :       665
  | Number of centers in hartree multipole         :       243
  | Number of centers in electron density summation:       191
  | Number of centers in basis integrals           :       211
  | Number of centers in integrals                 :        81
  | Number of centers in hamiltonian               :       191
  | Consuming          1 KiB for k_phase.
  | Number of super-cells (origin) [n_cells]                     :        1331
  | Number of super-cells (after PM_index) [n_cells]             :          74
  | Number of super-cells in hamiltonian [n_cells_in_hamiltonian]:          74
  | Size of matrix packed + index [n_hamiltonian_matrix_size] :       62280
  | Size of matrix packed + index (no_symmetry):      122562

------------------------------------------------------------
          Begin self-consistency loop: Initialization.

          Date     :  20221003, Time     :  100749.305
------------------------------------------------------------
  | Estimated reciprocal-space cutoff momentum G_max:         1.90186217 bohr^-1 .
  | Reciprocal lattice points for long-range Hartree potential:      92
  Using simple linear distribution as default method for k-point parallelism.
  * Using 16 tasks for Scalapack Eigenvalue solver.
  Detailed listing of tasks and assigned k-points:
   Task     0 k-point     1 on mpsd-hpc-ibm-056
   Task     1 k-point     1 on mpsd-hpc-ibm-056
   Task     2 k-point     1 on mpsd-hpc-ibm-056
   Task     3 k-point     1 on mpsd-hpc-ibm-056
   Task     4 k-point     1 on mpsd-hpc-ibm-057
   Task     5 k-point     1 on mpsd-hpc-ibm-057
   Task     6 k-point     1 on mpsd-hpc-ibm-057
   Task     7 k-point     1 on mpsd-hpc-ibm-057
   Task     8 k-point     1 on mpsd-hpc-ibm-058
   Task     9 k-point     1 on mpsd-hpc-ibm-058
   Task    10 k-point     1 on mpsd-hpc-ibm-058
   Task    11 k-point     1 on mpsd-hpc-ibm-058
   Task    12 k-point     1 on mpsd-hpc-ibm-059
   Task    13 k-point     1 on mpsd-hpc-ibm-059
   Task    14 k-point     1 on mpsd-hpc-ibm-059
   Task    15 k-point     1 on mpsd-hpc-ibm-059
  K-point:     1 Tasks:    16 split into      4 X      4 BLACS grid
  Calculating block size based on n_basis =           69  max_nprow =            4  max_npcol =            4
  ScaLAPACK block size set to:           16
  Allocating        0.003 MB for ovlp
  Allocating        0.003 MB for ham
  Allocating        0.003 MB for eigenvec
  Required Scalapack workspace - INTEGER:            1  REAL:             1
  Partitioning the integration grid into batches with parallel hashing+maxmin method.
  | Number of batches:      506
  | Maximal batch size:     165
  | Minimal batch size:      51
  | Average batch size:      92.668
  | Standard deviation of batch sizes:      13.926

  Integration load balanced across    16 MPI tasks.
  Work distribution over tasks is as follows:
  Task     0 has       2900 integration points.
  Task     1 has       2916 integration points.
  Task     2 has       2928 integration points.
  Task     3 has       2926 integration points.
  Task     4 has       2978 integration points.
  Task     5 has       2941 integration points.
  Task     6 has       2967 integration points.
  Task     7 has       2891 integration points.
  Task     8 has       2918 integration points.
  Task     9 has       2904 integration points.
  Task    10 has       2932 integration points.
  Task    11 has       2939 integration points.
  Task    12 has       2931 integration points.
  Task    13 has       2932 integration points.
  Task    14 has       2928 integration points.
  Task    15 has       2959 integration points.
  Initializing partition tables, free-atom densities, potentials, etc. across the integration grid (initialize_grid_storage).
  | initialize_grid_storage: Actual outermost partition radius vs. multipole_radius_free
  | (-- VB: in principle, multipole_radius_free should be larger, hence this output)
  | Species        1: Confinement radius =              6.000000000000000 AA, multipole_radius_free =              6.064445521808699 AA.
  | Species        1: outer_partition_radius set to              6.064445521808699 AA .
  | Species        2: Confinement radius =              6.000000000000000 AA, multipole_radius_free =              6.071692442739658 AA.
  | Species        2: outer_partition_radius set to              6.071692442739658 AA .
  | The sparse table of interatomic distances needs        431.02 kbyte instead of       356.17 kbyte of memory.
  | Using the partition_type stratmann_smoother will reduce your memory usage.
  | Net number of integration points:    46890
  | of which are non-zero points    :    37604
  | Numerical average free-atom electrostatic potential    :     -1.29049429 eV
  Renormalizing the initial density to the exact electron count on the 3D integration grid.
  | Initial density: Formal number of electrons (from input files) :      10.0000000000
  | Integrated number of electrons on 3D grid     :      10.0000064994
  | Charge integration error                      :       0.0000064994
  | Normalization factor for density and gradient :       0.9999993501
  Renormalizing the free-atom superposition density to the exact electron count on the 3D integration grid.
  | Formal number of electrons (from input files) :      10.0000000000
  | Integrated number of electrons on 3D grid     :      10.0000064994
  | Charge integration error                      :       0.0000064994
  | Normalization factor for density and gradient :       0.9999993501
  Obtaining max. number of non-zero basis functions in each batch (get_n_compute_maxes).
  | Maximal number of non-zero basis functions:      411 in task     0
  | Maximal number of non-zero basis functions:      348 in task     1
  | Maximal number of non-zero basis functions:      404 in task     2
  | Maximal number of non-zero basis functions:      369 in task     3
  | Maximal number of non-zero basis functions:      411 in task     4
  | Maximal number of non-zero basis functions:      413 in task     5
  | Maximal number of non-zero basis functions:      366 in task     6
  | Maximal number of non-zero basis functions:      385 in task     7
  | Maximal number of non-zero basis functions:      378 in task     8
  | Maximal number of non-zero basis functions:      422 in task     9
  | Maximal number of non-zero basis functions:      416 in task    10
  | Maximal number of non-zero basis functions:      381 in task    11
  | Maximal number of non-zero basis functions:      412 in task    12
  | Maximal number of non-zero basis functions:      365 in task    13
  | Maximal number of non-zero basis functions:      434 in task    14
  | Maximal number of non-zero basis functions:      401 in task    15
  Integrating Hamiltonian matrix: batch-based integration.
  Time summed over all CPUs for integration: real work        1.052 s, elapsed        1.095 s
  Integrating overlap matrix.
  Time summed over all CPUs for integration: real work        0.598 s, elapsed        0.626 s
  Deallocating overlap matrix.

  Updating Kohn-Sham eigenvalues and eigenvectors using ELSI and the ELPA eigensolver.
  Singularity check in k-point 1 (analysis for other k-points may follow below):
  Overlap matrix is not singular
  | Lowest and highest eigenvalues :  0.4954E-03,  0.6962E+01
  Finished singularity check of overlap matrix
  | Time :     0.003 s
  Starting ELPA eigensolver
  Finished Cholesky decomposition
  | Time :     0.003 s
  Finished transformation to standard eigenproblem
  | Time :     0.001 s
  Finished solving standard eigenproblem
  | Time :     0.004 s
  Finished back-transformation of eigenvectors
  | Time :     0.001 s

  Obtaining occupation numbers and electronic chemical potential using ELSI.
  | Note that, for insulating systems, the printed 'chemical potential' value is not uniquely defined.
  | It can be anywhere in the energy gap, as long as it correctly separates occupied and unoccupied states.
  | In systems with a gap, the physically relevant chemical potential is the VBM or HOMO.

  | Chemical potential (Fermi level):    -7.48247199 eV
  Writing Kohn-Sham eigenvalues.

  State    Occupation    Eigenvalue [Ha]    Eigenvalue [eV]
      1       2.00000         -18.957411         -515.85740
      2       2.00000          -1.016949          -27.67260
      3       2.00000          -0.508480          -13.83644
      4       2.00000          -0.488541          -13.29388
      5       2.00000          -0.397746          -10.82322
      6       0.00000          -0.136074           -3.70276
      7       0.00000          -0.004655           -0.12666
      8       0.00000           0.042328            1.15180
      9       0.00000           0.187096            5.09115
     10       0.00000           0.198069            5.38974
     11       0.00000           0.209134            5.69081
     12       0.00000           0.320047            8.70893
     13       0.00000           0.439007           11.94597
     14       0.00000           0.446448           12.14847
     15       0.00000           0.451072           12.27429
     16       0.00000           0.481974           13.11518
     17       0.00000           0.493473           13.42809
     18       0.00000           0.563398           15.33083
     19       0.00000           0.856968           23.31928
     20       0.00000           0.892966           24.29885
     21       0.00000           0.961071           26.15206
     22       0.00000           0.974635           26.52116
     23       0.00000           1.122017           30.53163
     24       0.00000           1.143627           31.11967
     25       0.00000           1.369039           37.25345
     26       0.00000           1.400581           38.11176
     27       0.00000           1.458578           39.68993
     28       0.00000           1.789808           48.70315
     29       0.00000           1.894586           51.55431
     30       0.00000           1.958343           53.28923
     31       0.00000           2.090652           56.88953
     32       0.00000           2.229489           60.66749
     33       0.00000           2.379508           64.74971
     34       0.00000           2.406538           65.48522
     35       0.00000           2.410386           65.58993
     36       0.00000           2.487060           67.67635
     37       0.00000           2.806465           76.36781
     38       0.00000           2.881673           78.41432
     39       0.00000           2.894234           78.75613
     40       0.00000           3.257232           88.63379
     41       0.00000           3.264036           88.81893
     42       0.00000           3.303782           89.90049
     43       0.00000           3.369095           91.67774
     44       0.00000           3.372853           91.77999
     45       0.00000           3.579892           97.41382
     46       0.00000           3.592170           97.74791
     47       0.00000           3.610236           98.23952
     48       0.00000           3.687038          100.32940
     49       0.00000           3.774265          102.70299
     50       0.00000           3.975142          108.16911
     51       0.00000           4.486863          122.09376
     52       0.00000           4.555029          123.94864
     53       0.00000           4.820560          131.17412
     54       0.00000           4.872561          132.58912
     55       0.00000           4.900178          133.34063
     56       0.00000           5.072181          138.02106
     57       0.00000           5.331987          145.09076
     58       0.00000           5.422766          147.56097
     59       0.00000           5.535291          150.62294
     60       0.00000           5.570962          151.59359
     61       0.00000           5.726550          155.82735
     62       0.00000           6.232806          169.60328
     63       0.00000           6.619295          180.12017
     64       0.00000           6.656396          181.12975
     65       0.00000           6.878323          187.16869
     66       0.00000           7.108783          193.43982
     67       0.00000           7.163366          194.92509
     68       0.00000           7.987432          217.34908
     69       0.00000           8.217040          223.59704

  Highest occupied state (VBM) at    -10.82322424 eV (relative to internal zero)
  | Occupation number:      2.00000000
  | K-point:       1 at    0.000000    0.000000    0.000000 (in units of recip. lattice)

  Lowest unoccupied state (CBM) at    -3.70275577 eV (relative to internal zero)
  | Occupation number:      0.00000000
  | K-point:       1 at    0.000000    0.000000    0.000000 (in units of recip. lattice)

  ESTIMATED overall HOMO-LUMO gap:      7.12046847 eV between HOMO at k-point 1 and LUMO at k-point 1
  The gap value is above 0.2 eV. Unless you are using a very sparse k-point grid,
  this system is most likely an insulator or a semiconductor.
  Calculating total energy contributions from superposition of free atom densities.

  Total energy components:
  | Sum of eigenvalues            :         -42.73825471 Ha       -1162.96708182 eV
  | XC energy correction          :          -8.95610703 Ha        -243.70807202 eV
  | XC potential correction       :          11.51262705 Ha         313.27452132 eV
  | Free-atom electrostatic energy:         -36.21066479 Ha        -985.34232250 eV
  | Hartree energy correction     :           0.00000000 Ha           0.00000000 eV
  | Entropy correction            :           0.00000000 Ha           0.00000000 eV
  | ---------------------------
  | Total energy                  :         -76.39239948 Ha       -2078.74295502 eV
  | Total energy, T -> 0          :         -76.39239948 Ha       -2078.74295502 eV  <-- do not rely on this value for anything but (periodic) metals
  | Electronic free energy        :         -76.39239948 Ha       -2078.74295502 eV

  Derived energy quantities:
  | Kinetic energy                :          75.48453351 Ha        2054.03866518 eV
  | Electrostatic energy          :        -142.92082596 Ha       -3889.07354818 eV
  | Energy correction for multipole
  | error in Hartree potential    :           0.00000000 Ha           0.00000000 eV
  | Sum of eigenvalues per atom                           :        -387.65569394 eV
  | Total energy (T->0) per atom                          :        -692.91431834 eV  <-- do not rely on this value for anything but (periodic) metals
  | Electronic free energy per atom                       :        -692.91431834 eV
  Initialize hartree_potential_storage
  Max. number of atoms included in rho_multipole:            3

  End scf initialization - timings             :  max(cpu_time)    wall_clock(cpu1)
  | Time for scf. initialization                :        0.276 s           0.273 s
  | Boundary condition initialization           :        0.072 s           0.069 s
  | Integration                                 :        0.112 s           0.112 s
  | Solution of K.-S. eqns.                     :        0.028 s           0.029 s
  | Grid partitioning                           :        0.032 s           0.031 s
  | Preloading free-atom quantities on grid     :        0.084 s           0.081 s
  | Free-atom superposition energy              :        0.012 s           0.011 s
  | Total energy evaluation                     :        0.000 s           0.001 s

  Partial memory accounting:
  | Current value for overall tracked memory usage:
  |   Minimum:        0.719 MB (on task  5)
  |   Maximum:        0.724 MB (on task  0)
  |   Average:        0.720 MB
  | Peak value for overall tracked memory usage:
  |   Minimum:        3.442 MB (on task  1 after allocating wave)
  |   Maximum:        4.280 MB (on task 14 after allocating wave)
  |   Average:        3.888 MB
  | Largest tracked array allocation so far:
  |   Minimum:        0.924 MB (hamiltonian_shell on task  1)
  |   Maximum:        1.437 MB (hamiltonian_shell on task 14)
  |   Average:        1.193 MB
  Note:  These values currently only include a subset of arrays which are explicitly tracked.
  The "true" memory usage will be greater.
------------------------------------------------------------
  Evaluating new KS density using the density matrix
  Evaluating density matrix
  Finished density matrix calculation
  | Time :     0.000 s
  Time summed over all CPUs for getting density from density matrix: real work        2.135 s, elapsed        2.274 s
  Integration grid: deviation in total charge (<rho> - N_e) =  -3.552714E-15

  Time for density update prior                :  max(cpu_time)    wall_clock(cpu1)
  | self-consistency iterative process          :        0.148 s           0.145 s

------------------------------------------------------------
          Begin self-consistency iteration #    1

  Date     :  20221003, Time     :  100749.727
------------------------------------------------------------
  Pulay mixing of updated and previous charge densities.
  Renormalizing the density to the exact electron count on the 3D integration grid.
  | Formal number of electrons (from input files) :      10.0000000000
  | Integrated number of electrons on 3D grid     :       9.9996361434
  | Charge integration error                      :      -0.0003638566
  | Normalization factor for density and gradient :       1.0000363870

  Evaluating partitioned Hartree potential by multipole expansion.
  | Original multipole sum: apparent total charge =   0.260890E-14
  | Sum of charges compensated after spline to logarithmic grids =   0.882088E-07
  | Analytical far-field extrapolation by fixed multipoles:
  | Hartree multipole sum: apparent total charge =   0.261043E-14
  Summing up the Hartree potential.
  Time summed over all CPUs for potential: real work        2.391 s, elapsed        2.441 s
  | RMS charge density error from multipole expansion :   0.834681E-04
  | Average real-space part of the electrostatic potential :      0.00797664 eV

  Integrating Hamiltonian matrix: batch-based integration.
  Time summed over all CPUs for integration: real work        1.042 s, elapsed        1.086 s

  Updating Kohn-Sham eigenvalues and eigenvectors using ELSI and the ELPA eigensolver.
  Starting ELPA eigensolver
  Finished transformation to standard eigenproblem
  | Time :     0.001 s
  Finished solving standard eigenproblem
  | Time :     0.004 s
  Finished back-transformation of eigenvectors
  | Time :     0.001 s

  Obtaining occupation numbers and electronic chemical potential using ELSI.
  | Note that, for insulating systems, the printed 'chemical potential' value is not uniquely defined.
  | It can be anywhere in the energy gap, as long as it correctly separates occupied and unoccupied states.
  | In systems with a gap, the physically relevant chemical potential is the VBM or HOMO.

  | Chemical potential (Fermi level):    -7.13969559 eV
  Writing Kohn-Sham eigenvalues.

  State    Occupation    Eigenvalue [Ha]    Eigenvalue [eV]
      1       2.00000         -18.932123         -515.16927
      2       2.00000          -1.004995          -27.34729
      3       2.00000          -0.497624          -13.54104
      4       2.00000          -0.478256          -13.01402
      5       2.00000          -0.384621          -10.46607
      6       0.00000          -0.134179           -3.65119
      7       0.00000          -0.001492           -0.04059
      8       0.00000           0.044767            1.21817
      9       0.00000           0.189982            5.16968
     10       0.00000           0.199159            5.41939
     11       0.00000           0.210988            5.74128
     12       0.00000           0.321544            8.74967
     13       0.00000           0.440706           11.99222
     14       0.00000           0.448778           12.21186
     15       0.00000           0.453572           12.34234
     16       0.00000           0.484158           13.17462
     17       0.00000           0.496244           13.50348
     18       0.00000           0.564072           15.34918
     19       0.00000           0.858179           23.35223
     20       0.00000           0.896050           24.38277
     21       0.00000           0.965545           26.27383
     22       0.00000           0.978139           26.61652
     23       0.00000           1.123557           30.57355
     24       0.00000           1.147934           31.23687
     25       0.00000           1.378065           37.49906
     26       0.00000           1.410811           38.39013
     27       0.00000           1.464664           39.85554
     28       0.00000           1.796320           48.88035
     29       0.00000           1.896538           51.60743
     30       0.00000           1.961748           53.38187
     31       0.00000           2.096395           57.04580
     32       0.00000           2.232358           60.74555
     33       0.00000           2.383888           64.86890
     34       0.00000           2.412908           65.65856
     35       0.00000           2.416405           65.75371
     36       0.00000           2.490028           67.75712
     37       0.00000           2.812016           76.51885
     38       0.00000           2.884906           78.50230
     39       0.00000           2.902879           78.99135
     40       0.00000           3.263877           88.81460
     41       0.00000           3.268955           88.95278
     42       0.00000           3.309417           90.05383
     43       0.00000           3.379903           91.97183
     44       0.00000           3.381153           92.00585
     45       0.00000           3.581452           97.45627
     46       0.00000           3.597202           97.88484
     47       0.00000           3.616387           98.40690
     48       0.00000           3.688650          100.37328
     49       0.00000           3.780300          102.86720
     50       0.00000           3.980789          108.32278
     51       0.00000           4.494811          122.31003
     52       0.00000           4.564298          124.20087
     53       0.00000           4.827484          131.36252
     54       0.00000           4.876240          132.68923
     55       0.00000           4.907136          133.52996
     56       0.00000           5.080073          138.23581
     57       0.00000           5.337938          145.25270
     58       0.00000           5.431700          147.80408
     59       0.00000           5.543129          150.83621
     60       0.00000           5.576839          151.75350
     61       0.00000           5.735276          156.06479
     62       0.00000           6.240992          169.82603
     63       0.00000           6.628379          180.36737
     64       0.00000           6.662519          181.29637
     65       0.00000           6.887372          187.41492
     66       0.00000           7.115648          193.62663
     67       0.00000           7.170621          195.12251
     68       0.00000           7.995510          217.56889
     69       0.00000           8.223868          223.78284

  Highest occupied state (VBM) at    -10.46607213 eV (relative to internal zero)
  | Occupation number:      2.00000000
  | K-point:       1 at    0.000000    0.000000    0.000000 (in units of recip. lattice)

  Lowest unoccupied state (CBM) at    -3.65119407 eV (relative to internal zero)
  | Occupation number:      0.00000000
  | K-point:       1 at    0.000000    0.000000    0.000000 (in units of recip. lattice)

  ESTIMATED overall HOMO-LUMO gap:      6.81487806 eV between HOMO at k-point 1 and LUMO at k-point 1
  The gap value is above 0.2 eV. Unless you are using a very sparse k-point grid,
  this system is most likely an insulator or a semiconductor.

  Total energy components:
  | Sum of eigenvalues            :         -42.59523742 Ha       -1159.07538318 eV
  | XC energy correction          :          -8.97220035 Ha        -244.14599353 eV
  | XC potential correction       :          11.53362664 Ha         313.84594915 eV
  | Free-atom electrostatic energy:         -36.21066479 Ha        -985.34232250 eV
  | Hartree energy correction     :          -0.13669031 Ha          -3.71953250 eV
  | Entropy correction            :           0.00000000 Ha           0.00000000 eV
  | ---------------------------
  | Total energy                  :         -76.38116622 Ha       -2078.43728257 eV
  | Total energy, T -> 0          :         -76.38116622 Ha       -2078.43728257 eV  <-- do not rely on this value for anything but (periodic) metals
  | Electronic free energy        :         -76.38116622 Ha       -2078.43728257 eV

  Derived energy quantities:
  | Kinetic energy                :          75.58170386 Ha        2056.68280501 eV
  | Electrostatic energy          :        -142.99066973 Ha       -3890.97409405 eV
  | Energy correction for multipole
  | error in Hartree potential    :          -0.00005769 Ha          -0.00156991 eV
  | Sum of eigenvalues per atom                           :        -386.35846106 eV
  | Total energy (T->0) per atom                          :        -692.81242752 eV  <-- do not rely on this value for anything but (periodic) metals
  | Electronic free energy per atom                       :        -692.81242752 eV
  Evaluating new KS density using the density matrix
  Evaluating density matrix
  Finished density matrix calculation
  | Time :     0.000 s
  Time summed over all CPUs for getting density from density matrix: real work        2.096 s, elapsed        2.484 s
  Integration grid: deviation in total charge (<rho> - N_e) =  -1.776357E-15

  Self-consistency convergence accuracy:
  | Change of charge density      :  0.2735E+00
  | Change of unmixed KS density  :  0.9088E+01
  | Change of sum of eigenvalues  :  0.3892E+01 eV
  | Change of total energy        :  0.3057E+00 eV


------------------------------------------------------------
  End self-consistency iteration #     1       :  max(cpu_time)    wall_clock(cpu1)
  | Time for this iteration                     :        0.484 s           0.483 s
  | Charge density update                       :        0.160 s           0.158 s
  | Density mixing & preconditioning            :        0.076 s           0.074 s
  | Hartree multipole update                    :        0.004 s           0.004 s
  | Hartree multipole summation                 :        0.164 s           0.164 s
  | Integration                                 :        0.072 s           0.070 s
  | Solution of K.-S. eqns.                     :        0.008 s           0.007 s
  | Total energy evaluation                     :        0.008 s           0.002 s

  Partial memory accounting:
  | Current value for overall tracked memory usage:
  |   Minimum:        0.719 MB (on task  5)
  |   Maximum:        0.724 MB (on task  0)
  |   Average:        0.720 MB
  | Peak value for overall tracked memory usage:
  |   Minimum:        4.274 MB (on task  1 after allocating gradient_basis_wave)
  |   Maximum:        5.434 MB (on task 14 after allocating gradient_basis_wave)
  |   Average:        4.895 MB
  | Largest tracked array allocation so far:
  |   Minimum:        1.314 MB (gradient_basis_wave on task  1)
  |   Maximum:        1.639 MB (gradient_basis_wave on task 14)
  |   Average:        1.491 MB
  Note:  These values currently only include a subset of arrays which are explicitly tracked.
  The "true" memory usage will be greater.
------------------------------------------------------------

------------------------------------------------------------
          Begin self-consistency iteration #    2

  Date     :  20221003, Time     :  100750.214
------------------------------------------------------------
  Pulay mixing of updated and previous charge densities.
  Renormalizing the density to the exact electron count on the 3D integration grid.
  | Formal number of electrons (from input files) :      10.0000000000
  | Integrated number of electrons on 3D grid     :       9.9974186411
  | Charge integration error                      :      -0.0025813589
  | Normalization factor for density and gradient :       1.0002582025

  Evaluating partitioned Hartree potential by multipole expansion.
  | Original multipole sum: apparent total charge =  -0.437840E-14
  | Sum of charges compensated after spline to logarithmic grids =   0.793757E-06
  | Analytical far-field extrapolation by fixed multipoles:
  | Hartree multipole sum: apparent total charge =  -0.414472E-14
  Summing up the Hartree potential.
  Time summed over all CPUs for potential: real work        2.735 s, elapsed        2.789 s
  | RMS charge density error from multipole expansion :   0.673653E-03
  | Average real-space part of the electrostatic potential :      0.06204473 eV

  Integrating Hamiltonian matrix: batch-based integration.
  Time summed over all CPUs for integration: real work        1.041 s, elapsed        1.082 s

  Updating Kohn-Sham eigenvalues and eigenvectors using ELSI and the ELPA eigensolver.
  Starting ELPA eigensolver
  Finished transformation to standard eigenproblem
  | Time :     0.001 s
  Finished solving standard eigenproblem
  | Time :     0.004 s
  Finished back-transformation of eigenvectors
  | Time :     0.000 s

  Obtaining occupation numbers and electronic chemical potential using ELSI.
  | Note that, for insulating systems, the printed 'chemical potential' value is not uniquely defined.
  | It can be anywhere in the energy gap, as long as it correctly separates occupied and unoccupied states.
  | In systems with a gap, the physically relevant chemical potential is the VBM or HOMO.

  | Chemical potential (Fermi level):    -4.93365332 eV
  Highest occupied state (VBM) at     -8.20722783 eV (relative to internal zero)
  | Occupation number:      2.00000000
  | K-point:       1 at    0.000000    0.000000    0.000000 (in units of recip. lattice)

  Lowest unoccupied state (CBM) at    -3.29697232 eV (relative to internal zero)
  | Occupation number:      0.00000000
  | K-point:       1 at    0.000000    0.000000    0.000000 (in units of recip. lattice)

  ESTIMATED overall HOMO-LUMO gap:      4.91025551 eV between HOMO at k-point 1 and LUMO at k-point 1
  The gap value is above 0.2 eV. Unless you are using a very sparse k-point grid,
  this system is most likely an insulator or a semiconductor.

  Checking to see if s.c.f. parameters should be adjusted.
  The system likely has a gap. Increased the default Pulay mixing parameter (charge_mix_param). Value:   0.200000 .
  Kept the default occupation width. Value:   0.010000 eV.

  Total energy components:
  | Sum of eigenvalues            :         -41.69689266 Ha       -1134.63017855 eV
  | XC energy correction          :          -9.07822874 Ha        -247.03117279 eV
  | XC potential correction       :          11.67200086 Ha         317.61130323 eV
  | Free-atom electrostatic energy:         -36.21066479 Ha        -985.34232250 eV
  | Hartree energy correction     :          -1.02787964 Ha         -27.97002806 eV
  | Entropy correction            :           0.00000000 Ha           0.00000000 eV
  | ---------------------------
  | Total energy                  :         -76.34166496 Ha       -2077.36239868 eV
  | Total energy, T -> 0          :         -76.34166496 Ha       -2077.36239868 eV  <-- do not rely on this value for anything but (periodic) metals
  | Electronic free energy        :         -76.34166496 Ha       -2077.36239868 eV

  Derived energy quantities:
  | Kinetic energy                :          76.13930344 Ha        2071.85586148 eV
  | Electrostatic energy          :        -143.40273966 Ha       -3902.18708737 eV
  | Energy correction for multipole
  | error in Hartree potential    :          -0.00046192 Ha          -0.01256959 eV
  | Sum of eigenvalues per atom                           :        -378.21005952 eV
  | Total energy (T->0) per atom                          :        -692.45413289 eV  <-- do not rely on this value for anything but (periodic) metals
  | Electronic free energy per atom                       :        -692.45413289 eV
  Evaluating new KS density using the density matrix
  Evaluating density matrix
  Finished density matrix calculation
  | Time :     0.000 s
  Time summed over all CPUs for getting density from density matrix: real work        2.151 s, elapsed        2.478 s
  Integration grid: deviation in total charge (<rho> - N_e) =   1.421085E-14

  Self-consistency convergence accuracy:
  | Change of charge density      :  0.2443E+00
  | Change of unmixed KS density  :  0.2473E-01
  | Change of sum of eigenvalues  :  0.2445E+02 eV
  | Change of total energy        :  0.1075E+01 eV


------------------------------------------------------------
  End self-consistency iteration #     2       :  max(cpu_time)    wall_clock(cpu1)
  | Time for this iteration                     :        0.564 s           0.560 s
  | Charge density update                       :        0.160 s           0.157 s
  | Density mixing & preconditioning            :        0.136 s           0.132 s
  | Hartree multipole update                    :        0.004 s           0.004 s
  | Hartree multipole summation                 :        0.188 s           0.187 s
  | Integration                                 :        0.072 s           0.070 s
  | Solution of K.-S. eqns.                     :        0.008 s           0.006 s
  | Total energy evaluation                     :        0.004 s           0.002 s

  Partial memory accounting:
  | Current value for overall tracked memory usage:
  |   Minimum:        0.720 MB (on task  5)
  |   Maximum:        0.724 MB (on task  0)
  |   Average:        0.721 MB
  | Peak value for overall tracked memory usage:
  |   Minimum:        4.274 MB (on task  1 after allocating gradient_basis_wave)
  |   Maximum:        5.435 MB (on task 14 after allocating gradient_basis_wave)
  |   Average:        4.896 MB
  | Largest tracked array allocation so far:
  |   Minimum:        1.314 MB (gradient_basis_wave on task  1)
  |   Maximum:        1.639 MB (gradient_basis_wave on task 14)
  |   Average:        1.491 MB
  Note:  These values currently only include a subset of arrays which are explicitly tracked.
  The "true" memory usage will be greater.
------------------------------------------------------------

------------------------------------------------------------
          Begin self-consistency iteration #    3

  Date     :  20221003, Time     :  100750.776
------------------------------------------------------------
  Pulay mixing of updated and previous charge densities.
  Renormalizing the density to the exact electron count on the 3D integration grid.
  | Formal number of electrons (from input files) :      10.0000000000
  | Integrated number of electrons on 3D grid     :       9.9979513213
  | Charge integration error                      :      -0.0020486787
  | Normalization factor for density and gradient :       1.0002049099

  Evaluating partitioned Hartree potential by multipole expansion.
  | Original multipole sum: apparent total charge =  -0.217690E-14
  | Sum of charges compensated after spline to logarithmic grids =   0.613542E-06
  | Analytical far-field extrapolation by fixed multipoles:
  | Hartree multipole sum: apparent total charge =  -0.220150E-14
  Summing up the Hartree potential.
  Time summed over all CPUs for potential: real work        2.812 s, elapsed        2.868 s
  | RMS charge density error from multipole expansion :   0.126836E-02
  | Average real-space part of the electrostatic potential :      0.08663601 eV

  Integrating Hamiltonian matrix: batch-based integration.
  Time summed over all CPUs for integration: real work        1.072 s, elapsed        1.539 s => Consider using load balancing!

  Updating Kohn-Sham eigenvalues and eigenvectors using ELSI and the ELPA eigensolver.
  Starting ELPA eigensolver
  Finished transformation to standard eigenproblem
  | Time :     0.001 s
  Finished solving standard eigenproblem
  | Time :     0.004 s
  Finished back-transformation of eigenvectors
  | Time :     0.001 s

  Obtaining occupation numbers and electronic chemical potential using ELSI.
  | Note that, for insulating systems, the printed 'chemical potential' value is not uniquely defined.
  | It can be anywhere in the energy gap, as long as it correctly separates occupied and unoccupied states.
  | In systems with a gap, the physically relevant chemical potential is the VBM or HOMO.

  | Chemical potential (Fermi level):    -5.70017786 eV
  Highest occupied state (VBM) at     -8.62518047 eV (relative to internal zero)
  | Occupation number:      2.00000000
  | K-point:       1 at    0.000000    0.000000    0.000000 (in units of recip. lattice)

  Lowest unoccupied state (CBM) at    -3.32208235 eV (relative to internal zero)
  | Occupation number:      0.00000000
  | K-point:       1 at    0.000000    0.000000    0.000000 (in units of recip. lattice)

  ESTIMATED overall HOMO-LUMO gap:      5.30309812 eV between HOMO at k-point 1 and LUMO at k-point 1
  The gap value is above 0.2 eV. Unless you are using a very sparse k-point grid,
  this system is most likely an insulator or a semiconductor.

  Total energy components:
  | Sum of eigenvalues            :         -41.95699634 Ha       -1141.70795987 eV
  | XC energy correction          :          -9.04856080 Ha        -246.22386702 eV
  | XC potential correction       :          11.63375104 Ha         316.57047261 eV
  | Free-atom electrostatic energy:         -36.21066479 Ha        -985.34232250 eV
  | Hartree energy correction     :          -0.76290094 Ha         -20.75959079 eV
  | Entropy correction            :           0.00000000 Ha           0.00000000 eV
  | ---------------------------
  | Total energy                  :         -76.34537183 Ha       -2077.46326758 eV
  | Total energy, T -> 0          :         -76.34537183 Ha       -2077.46326758 eV  <-- do not rely on this value for anything but (periodic) metals
  | Electronic free energy        :         -76.34537183 Ha       -2077.46326758 eV

  Derived energy quantities:
  | Kinetic energy                :          75.75640430 Ha        2061.43664575 eV
  | Electrostatic energy          :        -143.05321533 Ha       -3892.67604631 eV
  | Energy correction for multipole
  | error in Hartree potential    :          -0.00057150 Ha          -0.01555139 eV
  | Sum of eigenvalues per atom                           :        -380.56931996 eV
  | Total energy (T->0) per atom                          :        -692.48775586 eV  <-- do not rely on this value for anything but (periodic) metals
  | Electronic free energy per atom                       :        -692.48775586 eV
  Evaluating new KS density using the density matrix
  Evaluating density matrix
  Finished density matrix calculation
  | Time :     0.000 s
  Time summed over all CPUs for getting density from density matrix: real work        2.144 s, elapsed        2.521 s
  Integration grid: deviation in total charge (<rho> - N_e) =   1.776357E-15

  Self-consistency convergence accuracy:
  | Change of charge density      :  0.1193E+00
  | Change of unmixed KS density  :  0.1645E+00
  | Change of sum of eigenvalues  : -0.7078E+01 eV
  | Change of total energy        : -0.1009E+00 eV


------------------------------------------------------------
  End self-consistency iteration #     3       :  max(cpu_time)    wall_clock(cpu1)
  | Time for this iteration                     :        0.548 s           0.548 s
  | Charge density update                       :        0.160 s           0.160 s
  | Density mixing & preconditioning            :        0.084 s           0.083 s
  | Hartree multipole update                    :        0.004 s           0.004 s
  | Hartree multipole summation                 :        0.192 s           0.192 s
  | Integration                                 :        0.100 s           0.099 s
  | Solution of K.-S. eqns.                     :        0.008 s           0.006 s
  | Total energy evaluation                     :        0.004 s           0.002 s

  Partial memory accounting:
  | Current value for overall tracked memory usage:
  |   Minimum:        0.720 MB (on task  5)
  |   Maximum:        0.724 MB (on task  0)
  |   Average:        0.721 MB
  | Peak value for overall tracked memory usage:
  |   Minimum:        4.274 MB (on task  1 after allocating gradient_basis_wave)
  |   Maximum:        5.435 MB (on task 14 after allocating gradient_basis_wave)
  |   Average:        4.896 MB
  | Largest tracked array allocation so far:
  |   Minimum:        1.314 MB (gradient_basis_wave on task  1)
  |   Maximum:        1.639 MB (gradient_basis_wave on task 14)
  |   Average:        1.491 MB
  Note:  These values currently only include a subset of arrays which are explicitly tracked.
  The "true" memory usage will be greater.
------------------------------------------------------------

------------------------------------------------------------
          Begin self-consistency iteration #    4

  Date     :  20221003, Time     :  100751.326
------------------------------------------------------------
  Pulay mixing of updated and previous charge densities.
  Renormalizing the density to the exact electron count on the 3D integration grid.
  | Formal number of electrons (from input files) :      10.0000000000
  | Integrated number of electrons on 3D grid     :       9.9967827047
  | Charge integration error                      :      -0.0032172953
  | Normalization factor for density and gradient :       1.0003218331

  Evaluating partitioned Hartree potential by multipole expansion.
  | Original multipole sum: apparent total charge =  -0.670288E-14
  | Sum of charges compensated after spline to logarithmic grids =   0.948914E-06
  | Analytical far-field extrapolation by fixed multipoles:
  | Hartree multipole sum: apparent total charge =  -0.719484E-14
  Summing up the Hartree potential.
  Time summed over all CPUs for potential: real work        2.891 s, elapsed        2.944 s
  | RMS charge density error from multipole expansion :   0.205864E-02
  | Average real-space part of the electrostatic potential :      0.13790983 eV

  Integrating Hamiltonian matrix: batch-based integration.
  Time summed over all CPUs for integration: real work        1.044 s, elapsed        1.081 s

  Updating Kohn-Sham eigenvalues and eigenvectors using ELSI and the ELPA eigensolver.
  Starting ELPA eigensolver
  Finished transformation to standard eigenproblem
  | Time :     0.000 s
  Finished solving standard eigenproblem
  | Time :     0.004 s
  Finished back-transformation of eigenvectors
  | Time :     0.000 s

  Obtaining occupation numbers and electronic chemical potential using ELSI.
  | Note that, for insulating systems, the printed 'chemical potential' value is not uniquely defined.
  | It can be anywhere in the energy gap, as long as it correctly separates occupied and unoccupied states.
  | In systems with a gap, the physically relevant chemical potential is the VBM or HOMO.

  | Chemical potential (Fermi level):    -4.78140281 eV
  Highest occupied state (VBM) at     -7.47190841 eV (relative to internal zero)
  | Occupation number:      2.00000000
  | K-point:       1 at    0.000000    0.000000    0.000000 (in units of recip. lattice)

  Lowest unoccupied state (CBM) at    -3.08529372 eV (relative to internal zero)
  | Occupation number:      0.00000000
  | K-point:       1 at    0.000000    0.000000    0.000000 (in units of recip. lattice)

  ESTIMATED overall HOMO-LUMO gap:      4.38661469 eV between HOMO at k-point 1 and LUMO at k-point 1
  The gap value is above 0.2 eV. Unless you are using a very sparse k-point grid,
  this system is most likely an insulator or a semiconductor.

  Total energy components:
  | Sum of eigenvalues            :         -41.56088389 Ha       -1130.92919182 eV
  | XC energy correction          :          -9.10200445 Ha        -247.67814272 eV
  | XC potential correction       :          11.70386548 Ha         318.47838358 eV
  | Free-atom electrostatic energy:         -36.21066479 Ha        -985.34232250 eV
  | Hartree energy correction     :          -1.16701836 Ha         -31.75618526 eV
  | Entropy correction            :           0.00000000 Ha           0.00000000 eV
  | ---------------------------
  | Total energy                  :         -76.33670601 Ha       -2077.22745872 eV
  | Total energy, T -> 0          :         -76.33670601 Ha       -2077.22745872 eV  <-- do not rely on this value for anything but (periodic) metals
  | Electronic free energy        :         -76.33670601 Ha       -2077.22745872 eV

  Derived energy quantities:
  | Kinetic energy                :          75.81956029 Ha        2063.15520780 eV
  | Electrostatic energy          :        -143.05426186 Ha       -3892.70452380 eV
  | Energy correction for multipole
  | error in Hartree potential    :          -0.00093582 Ha          -0.02546502 eV
  | Sum of eigenvalues per atom                           :        -376.97639727 eV
  | Total energy (T->0) per atom                          :        -692.40915291 eV  <-- do not rely on this value for anything but (periodic) metals
  | Electronic free energy per atom                       :        -692.40915291 eV
  Evaluating new KS density using the density matrix
  Evaluating density matrix
  Finished density matrix calculation
  | Time :     0.000 s
  Time summed over all CPUs for getting density from density matrix: real work        2.109 s, elapsed        2.203 s
  Integration grid: deviation in total charge (<rho> - N_e) =  -3.552714E-15

  Self-consistency convergence accuracy:
  | Change of charge density      :  0.1060E+00
  | Change of unmixed KS density  :  0.6702E-01
  | Change of sum of eigenvalues  :  0.1078E+02 eV
  | Change of total energy        :  0.2358E+00 eV


------------------------------------------------------------
  End self-consistency iteration #     4       :  max(cpu_time)    wall_clock(cpu1)
  | Time for this iteration                     :        0.496 s           0.493 s
  | Charge density update                       :        0.144 s           0.141 s
  | Density mixing & preconditioning            :        0.076 s           0.073 s
  | Hartree multipole update                    :        0.004 s           0.003 s
[...]
 FOU  0.000000000000000E+000  0.000000000000000E+000  0.000000000000000E+000
  0.000000000000000E+000  0.000000000000000E+000  0.000000000000000E+000
  0.000000000000000E+000  0.000000000000000E+000  0.000000000000000E+000
 FOU  0.000000000000000E+000  0.000000000000000E+000  0.000000000000000E+000
  0.000000000000000E+000  0.000000000000000E+000  0.000000000000000E+000
  0.000000000000000E+000  0.000000000000000E+000  0.000000000000000E+000
 FOU  0.000000000000000E+000  0.000000000000000E+000  0.000000000000000E+000
 -1.925645473019523E-007  3.661390372269061E-005  2.449498821567245E-005
  0.000000000000000E+000  0.000000000000000E+000  0.000000000000000E+000
  0.000000000000000E+000  0.000000000000000E+000  0.000000000000000E+000
 FOU  0.000000000000000E+000  0.000000000000000E+000  0.000000000000000E+000
  0.000000000000000E+000  0.000000000000000E+000  0.000000000000000E+000
  0.000000000000000E+000  0.000000000000000E+000  0.000000000000000E+000
 -6.180572068707738E-006  3.969791918331903E-004  3.176250993338248E-004
  0.000000000000000E+000  0.000000000000000E+000  0.000000000000000E+000
  0.000000000000000E+000  0.000000000000000E+000  0.000000000000000E+000
  0.000000000000000E+000  0.000000000000000E+000  0.000000000000000E+000
  0.000000000000000E+000  0.000000000000000E+000  0.000000000000000E+000
  End CPSCF iteration #     5                  :  max(cpu_time)    wall_clock(cpu1)
  | Time for this iteration                     :        1.316 s           1.314 s
  | first_order_DM                              :        0.016 s           0.015 s
  | first_order_density                         :        0.136 s           0.132 s
  | first_order_potential                       :        0.248 s           0.244 s
  | first_order_H                               :        0.916 s           0.916 s
  | Solution of Sternheimer eqns.               :        0.004 s           0.003 s
------------------------------------------------------------

--------------------- CPSCF ---------------------------------------
          Begin CP-self-consistency iteration #    6

  Date     :  20221003, Time     :  100822.617
------------------------------------------------------------

  CPSCF convergence accuracy:
  | Change of first_order_density_matrix     :  0.5671E-03
  Integrating first_order_rho: batch-based integration.
  Time summed over all CPUs for integration: real work        2.003 s, elapsed        2.247 s

  Evaluating partitioned Hartree potential by multipole expansion.
  | Original multipole sum: apparent total charge =   0.268115E-14
  | Sum of charges compensated after spline to logarithmic grids =   0.782019E-06
  | Analytical far-field extrapolation by fixed multipoles:
  | Hartree multipole sum: apparent total charge =   0.268115E-14
  Summing up the Hartree potential.
  Time summed over all CPUs for potential: real work        3.536 s, elapsed        3.629 s
  | RMS delta_rho error from multipole expansion :   0.211654E-01

  Integrating first-order-Hamiltonian matrix: batch-based integration.
  Time summed over all CPUs for integration: real work       13.527 s, elapsed       14.847 s
 FOH  5.503715110685169E-002 -2.983093405500552E-005  3.654143475886288E-005
  0.000000000000000E+000  1.821141341672601E-002  7.410471332719042E-003
  0.000000000000000E+000  0.000000000000000E+000  4.535700112557649E-002
 FOH  0.000000000000000E+000  0.000000000000000E+000  0.000000000000000E+000
  0.000000000000000E+000  0.000000000000000E+000  0.000000000000000E+000
  0.000000000000000E+000  0.000000000000000E+000  0.000000000000000E+000
 FOH  0.000000000000000E+000  0.000000000000000E+000  0.000000000000000E+000
 FOH  0.000000000000000E+000  0.000000000000000E+000  0.000000000000000E+000
  0.000000000000000E+000  0.000000000000000E+000  0.000000000000000E+000
  0.000000000000000E+000  0.000000000000000E+000  0.000000000000000E+000
 FOH -1.921482077788932E-003 -1.093843865962341E-005  1.863313096471399E-002
 -4.663205613983018E-006  6.421406198540305E-004 -2.196858107702780E-004
 -2.700586765665178E-004  6.760769503630908E-003 -1.201525952540256E-005
 FOH -5.888598207931356E-003 -2.505275828450656E-004  5.900411656998932E-006
  0.000000000000000E+000  0.000000000000000E+000  0.000000000000000E+000
  0.000000000000000E+000  0.000000000000000E+000  0.000000000000000E+000
 FOH  2.994665553155543E-002  1.006479409655674E-002  8.919313836976101E-005
  0.000000000000000E+000  3.237323964699810E-002  5.236401211048030E-004
  0.000000000000000E+000  0.000000000000000E+000  3.181969127388967E-002
 FOH -4.009236600049253E-003  4.591215855938187E-003 -7.134314406429965E-004
 -1.772574283980823E-003 -3.240812423800967E-003  5.446727574169103E-002
  1.245713646174733E-002 -8.125471471525661E-003 -3.315748017721203E-002
 FOH  3.297639903969199E-002 -2.227656455681343E-002  6.399641853433193E-004
  0.000000000000000E+000  3.173909635893905E-002 -3.066988207775524E-006
  0.000000000000000E+000  0.000000000000000E+000  1.634822512491617E-002
 FOH  0.000000000000000E+000  0.000000000000000E+000  0.000000000000000E+000
 FOH  3.537090193802148E-002  1.531151987166174E-002 -7.671368787452854E-004
  2.761899163277840E-003 -1.458988715186923E-005  4.162119004680843E-002
 -2.448650864692757E-004 -4.611165208405132E-004 -1.315381926520189E-002
 FOH  0.000000000000000E+000  0.000000000000000E+000  0.000000000000000E+000
  0.000000000000000E+000  0.000000000000000E+000  0.000000000000000E+000
  0.000000000000000E+000  0.000000000000000E+000  0.000000000000000E+000
 FOH -2.891373173924402E-006  1.860624246673261E-005  6.201764378255081E-005
 -2.538935359286544E-006  9.014073317505217E-005  1.702187791624047E-004
  3.070346327588443E-005 -1.929702580326873E-004 -6.005139540299941E-004
 FOH -2.523285367794297E-003 -1.334738937097100E-003  1.143798635795862E-002
  1.327249747354348E-002 -1.124050161102897E-002  2.520879060686961E-004
  1.996609098619692E-003  5.254835728427327E-004 -1.920864422654738E-002
 FOH  0.000000000000000E+000  0.000000000000000E+000  0.000000000000000E+000
  0.000000000000000E+000  0.000000000000000E+000  0.000000000000000E+000
  0.000000000000000E+000  0.000000000000000E+000  0.000000000000000E+000
  0.000000000000000E+000  0.000000000000000E+000  0.000000000000000E+000
 FOH -1.000443731152860E-002 -7.434046956433161E-004 -7.235313400651125E-003
  1.034472172090764E-002 -1.033167402706087E-003 -1.605348409234550E-004
  0.000000000000000E+000  0.000000000000000E+000  0.000000000000000E+000
  0.000000000000000E+000 -1.408463809294563E-002  2.078063987988918E-002
  5.103263970932315E-002  2.995371306917018E-003 -2.322460171101115E-005
  0.000000000000000E+000  0.000000000000000E+000 -1.407916702598929E-002
 FOU  3.281777920275791E-004  2.284568695937093E-007  6.813138543234143E-006
 -1.039258612424618E-002 -3.654651228027773E-005 -3.967064355879204E-004
 -1.305774071469232E-002 -2.443818033949717E-005 -3.225084817745420E-004
 FOU  0.000000000000000E+000  0.000000000000000E+000  0.000000000000000E+000
  0.000000000000000E+000  0.000000000000000E+000  0.000000000000000E+000
  0.000000000000000E+000  0.000000000000000E+000  0.000000000000000E+000
 FOU  1.441133707310525E-005 -1.511670738434116E-005 -8.173135849550742E-004
 -4.934985300195784E-005 -7.153160813349417E-004  7.902064694605851E-003
 -7.918784423396939E-005 -3.948596487156470E-003  2.569777910266038E-002
 FOU  0.000000000000000E+000  0.000000000000000E+000  0.000000000000000E+000
  0.000000000000000E+000  0.000000000000000E+000  0.000000000000000E+000
  0.000000000000000E+000  0.000000000000000E+000  0.000000000000000E+000
 FOU  6.165841367307276E-005  8.668962730250430E-006  4.747369583536768E-006
 -1.169241265588218E-002 -8.370137999780786E-004 -2.910078634515130E-005
 -9.704604262977878E-002 -6.119446972025628E-003 -6.625794325803739E-006
 FOU -6.165774223643710E-005  1.169247549270651E-002  9.704555976547316E-002
 -8.668481271711523E-006  8.370232249566179E-004  6.119283995893341E-003
 -4.747402521280717E-006  2.909202739558402E-005  6.654358272979353E-006
 FOU  0.000000000000000E+000  0.000000000000000E+000  0.000000000000000E+000
  0.000000000000000E+000  0.000000000000000E+000  0.000000000000000E+000
  0.000000000000000E+000  0.000000000000000E+000  0.000000000000000E+000
 FOU  0.000000000000000E+000  0.000000000000000E+000  0.000000000000000E+000
 FOU  0.000000000000000E+000  0.000000000000000E+000  0.000000000000000E+000
  0.000000000000000E+000  0.000000000000000E+000  0.000000000000000E+000
  0.000000000000000E+000  0.000000000000000E+000  0.000000000000000E+000
 FOU -1.441167399101434E-005  4.935428453968001E-005  7.919271272612498E-005
  1.511708989510760E-005  7.153016477952195E-004  3.948579292860658E-003
  8.173135943019516E-004 -7.902049268139321E-003 -2.569791357955963E-002
 FOU  0.000000000000000E+000  0.000000000000000E+000  0.000000000000000E+000
 FOU  0.000000000000000E+000  0.000000000000000E+000  0.000000000000000E+000
  0.000000000000000E+000  0.000000000000000E+000  0.000000000000000E+000
  0.000000000000000E+000  0.000000000000000E+000  0.000000000000000E+000
 FOU  0.000000000000000E+000  0.000000000000000E+000  0.000000000000000E+000
 FOU -3.281783361998453E-004  1.039262753081808E-002  1.305757356653267E-002
 FOU  0.000000000000000E+000  0.000000000000000E+000  0.000000000000000E+000
  0.000000000000000E+000  0.000000000000000E+000  0.000000000000000E+000
  0.000000000000000E+000  0.000000000000000E+000  0.000000000000000E+000
  0.000000000000000E+000  0.000000000000000E+000  0.000000000000000E+000
 FOU  0.000000000000000E+000  0.000000000000000E+000  0.000000000000000E+000
  0.000000000000000E+000  0.000000000000000E+000  0.000000000000000E+000
  0.000000000000000E+000  0.000000000000000E+000  0.000000000000000E+000
 -2.286496991773493E-007  3.654450043643218E-005  2.443947660928983E-005
  0.000000000000000E+000  0.000000000000000E+000  0.000000000000000E+000
  0.000000000000000E+000  0.000000000000000E+000  0.000000000000000E+000
  0.000000000000000E+000  0.000000000000000E+000  0.000000000000000E+000
 -6.812633458950586E-006  3.966962098753625E-004  3.224990820743838E-004
  0.000000000000000E+000  0.000000000000000E+000  0.000000000000000E+000
  0.000000000000000E+000  0.000000000000000E+000  0.000000000000000E+000

  CP-self-consistency cycle converged.

  End CPSCF iteration #     6                  :  max(cpu_time)    wall_clock(cpu1)
  | Time for this iteration                     :        1.328 s           1.326 s
  | first_order_DM                              :        0.004 s           0.003 s
  | first_order_density                         :        0.144 s           0.141 s
  | first_order_potential                       :        0.248 s           0.245 s
  | first_order_H                               :        0.932 s           0.930 s
  | Solution of Sternheimer eqns.               :        0.004 s           0.002 s
------------------------------------------------------------
dP_dE (Bohr^3) at every cycle:--->
 (16.2216595099600,0.000000000000000E+000) (0.307895123518685,0.000000000000000E+000) (-0.276057362302808,0.000000000000000E+000)
 (0.307919510511658,0.000000000000000E+000) (14.7628939947322,0.000000000000000E+000) (1.619797970844621E-002,0.000000000000000E+000)
 (-0.276157567751540,0.000000000000000E+000) (1.617383549994308E-002,0.000000000000000E+000) (17.7006232552346,0.000000000000000E+000)
DFPT polarizability (Bohr^3)        xx        yy        zz        xy        xz        yz
  | Polarizability:--->                        16.221659510                   14.762893995                   17.700623255                    0.307895124                   -0.276057362                    0.016197980

DFPT for dielectric_constant:--->  # PARSE DFPT_dielectric_tensor
               1.241656526660508             0.004586760440851            -0.004112468474153
               0.004587123737591             1.219925075115390             0.000241303765059
              -0.004113961249950             0.000240944085116             1.263688874307826

                                               :  max(cpu_time)    wall_clock(cpu1)
  | Time for  dielectric calculation            :        0.004 s           0.001 s
===========================================================================

------------------------------------------------------------------------------
  Final output of selected total energy values:

  The following output summarizes some interesting total energy values
  at the end of a run (AFTER all relaxation, molecular dynamics, etc.).

  | Total energy of the DFT / Hartree-Fock s.c.f. calculation      :          -2077.212852504 eV
  | Final zero-broadening corrected energy (caution - metals only) :          -2077.212852504 eV
  | For reference only, the value of 1 Hartree used in FHI-aims is :             27.211384500 eV
  | For reference only, the overall average (free atom contribution
  | + realspace contribution) of the electrostatic potential after
  | s.c.f. convergence is                                          :             -1.138949158 eV

  Before relying on these values, please be sure to understand exactly which
  total energy value is referred to by a given number. Different objects may
  all carry the same name 'total energy'. Definitions:

  Total energy of the DFT / Hartree-Fock s.c.f. calculation:
  | Note that this energy does not include ANY quantities calculated after the
  | s.c.f. cycle, in particular not ANY RPA, MP2, etc. many-body perturbation terms.

  Final zero-broadening corrected energy:
  | For metallic systems only, a broadening of the occupation numbers at the Fermi
  | level can be extrapolated back to zero broadening by an electron-gas inspired
  | formula. For all systems that are not real metals, this value can be
  | meaningless and should be avoided.

------------------------------------------------------------------------------
  Methods described in the following list of references were used in this FHI-aims run.
  If you publish the results, please make sure to cite these reference if they apply.
  FHI-aims is an academic code, and for our developers (often, Ph.D. students
  and postdocs), scientific credit in the community is essential.
  Thank you for helping us!

  For any use of FHI-aims, please cite:

    Volker Blum, Ralf Gehrke, Felix Hanke, Paula Havu, Ville Havu,
    Xinguo Ren, Karsten Reuter, and Matthias Scheffler
    'Ab initio molecular simulations with numeric atom-centered orbitals'
    Computer Physics Communications 180, 2175-2196 (2009)
    http://doi.org/10.1016/j.cpc.2009.06.022


  The provided symmetry information was generated with SPGlib:

    Atsushi Togo, Yusuke Seto, Dimitar Pashov
    SPGlib 1.7.3 obtained from http://spglib.sourceforge.net
    Copyright (C) 2008 Atsushi Togo


  The DFPT (perturbation by an electric field) part of the code was used.
  Here is the corresponding reference:

    Honghui Shang, Nathaniel Raimbault, Mariana Rossi,
    Christian Carbogno, Patrick Rinke and Matthias Scheffler,
    'All-Electron, Real-Space Perturbation Theory for Homogeneous
    Electric Fields: Theory, Implementation, and Application within dft'
    New Journal of Physics, 20(7):073040, 2018


  The ELSI infrastructure was used in your run to solve the Kohn-Sham electronic structure.
  Please check out http://elsi-interchange.org to learn more.
  If scalability is important for your project, please acknowledge ELSI by citing:

    V. W-z. Yu, F. Corsetti, A. Garcia, W. P. Huhn, M. Jacquelin, W. Jia,
    B. Lange, L. Lin, J. Lu, W. Mi, A. Seifitokaldani, A. Vazquez-Mayagoitia,
    C. Yang, H. Yang, and V. Blum
    'ELSI: A unified software interface for Kohn-Sham electronic structure solvers'
    Computer Physics Communications 222, 267-285 (2018).
    http://doi.org/10.1016/j.cpc.2017.09.007


  For the real-space grid partitioning and parallelization used in this calculation, please cite:

    Ville Havu, Volker Blum, Paula Havu, and Matthias Scheffler,
    'Efficient O(N) integration for all-electron electronic structure calculation'
    'using numerically tabulated basis functions'
    Journal of Computational Physics 228, 8367-8379 (2009).
    http://doi.org/10.1016/j.jcp.2009.08.008

  Of course, there are many other important community references, e.g., those cited in the
  above references. Our list is limited to references that describe implementations in the
  FHI-aims code. The reason is purely practical (length of this list) - please credit others as well.

------------------------------------------------------------
          Leaving FHI-aims.
          Date     :  20221003, Time     :  100823.950

          Computational steps:
          | Number of self-consistency cycles          :           34
          | Number of SCF (re)initializations          :            1
          | Number of coupled perturbed self-consistency cycles          :            0
          | Number of CPSCF (re)initializations          :            0

          Detailed time accounting                     :  max(cpu_time)    wall_clock(cpu1)
          | Total time                                  :       34.904 s          34.961 s
          | Preparation time                            :        0.136 s           0.141 s
          | Boundary condition initalization            :        0.072 s           0.069 s
          | Grid partitioning                           :        0.032 s           0.031 s
          | Preloading free-atom quantities on grid     :        0.084 s           0.081 s
          | Free-atom superposition energy              :        0.012 s           0.011 s
          | Total time for integrations                 :        1.216 s           1.189 s
          | Total time for solution of K.-S. equations  :        0.140 s           0.121 s
          | Total time for density update               :        2.080 s           2.053 s
          | Total time for mixing & preconditioning     :        1.124 s           1.091 s
          | Total time for Hartree multipole update     :        0.080 s           0.075 s
          | Total time for Hartree multipole sum        :        2.864 s           2.845 s
          | Total time for total energy evaluation      :        0.060 s           0.022 s
          | Total time first_order_DM                   :        0.116 s           0.093 s
          | Total time first_order_density              :        2.792 s           2.749 s
          | Total time first_order_potential            :        4.816 s           4.784 s
          | Total time first_order_H                    :       18.488 s          18.466 s
          | Total time solving of Sternheimer equations :        0.080 s           0.055 s
          | Total time for dielectric constant          :        0.004 s           0.001 s
          | Total time momentum matrix                  :        0.000 s           0.000 s

          Partial memory accounting:
          | Residual value for overall tracked memory usage across tasks:     0.000000 MB (should be 0.000000 MB)
          | Peak values for overall tracked memory usage:
          |   Minimum:        9.273 MB (on task  5 after allocating DFPT_pulay_mixing::pulay_mix::alphas)
          |   Maximum:        9.278 MB (on task  0 after allocating DFPT_pulay_mixing::pulay_mix::alphas)
          |   Average:        9.274 MB
          | Largest tracked array allocation:
          |   Minimum:        3.326 MB (DFPT_pulay_mixing::initialize_pulay_mixing::X_in_diffs on task  0)
          |   Maximum:        3.326 MB (DFPT_pulay_mixing::initialize_pulay_mixing::X_in_diffs on task  0)
          |   Average:        3.326 MB
          Note:  These values currently only include a subset of arrays which are explicitly tracked.
          The "true" memory usage will be greater.

          Have a nice day.
------------------------------------------------------------
