------------------------------------------------------------
          Invoking FHI-aims ...

          When using FHI-aims, please cite the following reference:

            Volker Blum, Ralf Gehrke, Felix Hanke, Paula Havu,
            Ville Havu, Xinguo Ren, Karsten Reuter, and Matthias Scheffler,
            'Ab Initio Molecular Simulations with Numeric Atom-Centered Orbitals',
            Computer Physics Communications 180, 2175-2196 (2009)

          In addition, many other developments in FHI-aims are likely important for
          your particular application. A partial list of references is given at the end of
          this file. Thank you for giving credit to the authors of these developments.

          For any questions about FHI-aims, please visit our slack channel at

            https://fhi-aims.slack.com

          and our main development and support site at

            https://aims-git.rz-berlin.mpg.de .

          The latter site, in particular, has a wiki to collect information, as well
          as an issue tracker to log discussions, suggest improvements, and report issues
          or bugs. https://aims-git.rz-berlin.mpg.de is also the main development site
          of the project and all new and updated code versions can be obtained there.
          Please send an email to aims-coordinators@fhi-berlin.mpg.de and we will add
          you to these sites. They are for you and everyone is welcome there.

------------------------------------------------------------



  Date     :  20221003, Time     :  101226.612
  Time zero on CPU 1             :   0.720000000000000E-01  s.
  Internal wall clock time zero  :           434023946.612  s.

  FHI-aims created a unique identifier for this run for later identification
  aims_uuid : 9B5306F6-C3C4-485C-A492-3DE46F948956

  Build configuration of the current instance of FHI-aims
  -------------------------------------------------------
  FHI-aims version      : 220810
  Commit number         : eae8be818
  CMake host system     : Linux-4.9.0-16-amd64
  CMake version         : 3.17.3
  Fortran compiler      : /opt/easybuild/software/impi/2017.3.196-iccifort-2017.4.196-GCC-6.4.0-2.28/bin64/mpiifort (Intel) version 17.0.4.20170411
  Fortran compiler flags: -O3 -ip -fp-model precise
  C compiler            : /opt/easybuild/software/icc/2017.4.196-GCC-6.4.0-2.28/compilers_and_libraries_2017.4.196/linux/bin/intel64/icc (Intel) version 17.0.4.20170411
  C compiler flags      : -O3 -ip -fp-model precise -std=gnu99
  Using MPI
  Using ScaLAPACK
  Using LibXC
  Using i-PI
  Using RLSY
  Linking against: /opt/easybuild/software/imkl/2017.3.196-iimpi-2017b/mkl/lib/intel64/libmkl_intel_lp64.so
                   /opt/easybuild/software/imkl/2017.3.196-iimpi-2017b/mkl/lib/intel64/libmkl_sequential.so
                   /opt/easybuild/software/imkl/2017.3.196-iimpi-2017b/mkl/lib/intel64/libmkl_core.so
                   /opt/easybuild/software/imkl/2017.3.196-iimpi-2017b/mkl/lib/intel64/libmkl_blacs_intelmpi_lp64.so
                   /opt/easybuild/software/imkl/2017.3.196-iimpi-2017b/mkl/lib/intel64/libmkl_scalapack_lp64.so

  Using       16 parallel tasks.
  Task        0 on host mpsd-hpc-ibm-056 reporting.
  Task        1 on host mpsd-hpc-ibm-056 reporting.
  Task        2 on host mpsd-hpc-ibm-056 reporting.
  Task        3 on host mpsd-hpc-ibm-056 reporting.
  Task        4 on host mpsd-hpc-ibm-057 reporting.
  Task        5 on host mpsd-hpc-ibm-057 reporting.
  Task        6 on host mpsd-hpc-ibm-057 reporting.
  Task        7 on host mpsd-hpc-ibm-057 reporting.
  Task        8 on host mpsd-hpc-ibm-058 reporting.
  Task        9 on host mpsd-hpc-ibm-058 reporting.
  Task       10 on host mpsd-hpc-ibm-058 reporting.
  Task       11 on host mpsd-hpc-ibm-058 reporting.
  Task       12 on host mpsd-hpc-ibm-059 reporting.
  Task       13 on host mpsd-hpc-ibm-059 reporting.
  Task       14 on host mpsd-hpc-ibm-059 reporting.
  Task       15 on host mpsd-hpc-ibm-059 reporting.

  Performing system and environment tests:
  | Environment variable OMP_NUM_THREADS correctly set to 1.
  | Checking for ScaLAPACK...
  | Testing pdtran()...
  | All pdtran() tests passed.

  Obtaining array dimensions for all initial allocations:
  
  -----------------------------------------------------------------------
  Parsing control.in (first pass over file, find array dimensions only).
  The contents of control.in will be repeated verbatim below
  unless switched off by setting 'verbatim_writeout .false.' .
  in the first line of control.in .
  -----------------------------------------------------------------------
  
  #########################################################################################
  #
  #  Volker Blum, 2017 : Test run input file control.in for simple H2O
  #
  #########################################################################################
  #
  #  Physical model
  #
    xc                 pbe
    spin               none
    relativistic       none
    charge             0.
  
  #  ri_density_restart         write
  #  ri_rho1 write
  #  ri_full_output .True.
  #  ri_output_density_only .True.
    DFPT dielectric
    sc_accuracy_rho    1d-6
  #  use_calculate_fock_matrix_old .false.
  #  output cube total_density
    k_grid 1 1 1
    wave_threshold 1e-8
  
  # prodbas_threshold 1e-2
  #
  #  Relaxation
  #
  #  relax_geometry   bfgs 1.e-2
  #
  
  ################################################################################
  
  ################################################################################
  #
  #  FHI-aims code project
  #  VB, Fritz-Haber Institut, 2009
  #
  #  Suggested "light" defaults for O atom (to be pasted into control.in file)
  #  Be sure to double-check any results obtained with these settings for post-processing,
  #  e.g., with the "tight" defaults and larger basis sets.
  #
  ################################################################################
    species        O
  #     global species definitions
      nucleus             8
      mass                15.9994
  #
      l_hartree           6
  #
      cut_pot             4.0  2.0  1.0
      basis_dep_cutoff    1e-4
  #
      radial_base         36 7.0
      radial_multiplier   2
       angular_grids specified
        division   0.2659   50
        division   0.4451  110
        division   0.6052  194
        division   0.7543  302
        division   0.8014  434
  #      division   0.8507  590
  #      division   0.8762  770
  #      division   0.9023  974
  #      division   1.2339 1202
  #      outer_grid 974
        outer_grid 434
  ################################################################################
  #
  #  Definition of "minimal" basis
  #
  ################################################################################
  #     valence basis states
      valence      2  s   2.
      valence      2  p   4.
  #     ion occupancy
      ion_occ      2  s   1.
      ion_occ      2  p   3.
  ################################################################################
  #
  #  Suggested additional basis functions. For production calculations,
  #  uncomment them one after another (the most important basis functions are
  #  listed first).
  #
  #
  ################################################################################
  #  "First tier" - improvements: -699.05 meV to -159.38 meV
       hydro 2 p 1.8
       hydro 3 d 7.6
       hydro 3 s 6.4
  #  "Second tier" - improvements: -49.91 meV to -5.39 meV
       hydro 4 f 11.6
       hydro 3 p 6.2
       hydro 3 d 5.6
       hydro 5 g 17.6
       hydro 1 s 0.75
  #  "Third tier" - improvements: -2.83 meV to -0.50 meV
  #     ionic 2 p auto
  #     hydro 4 f 10.8
  #     hydro 4 d 4.7
  #     hydro 2 s 6.8
  #  "Fourth tier" - improvements: -0.40 meV to -0.12 meV
  #     hydro 3 p 5
  #     hydro 3 s 3.3
  #     hydro 5 g 15.6
  #     hydro 4 f 17.6
  #     hydro 4 d 14
  # Further basis functions - -0.08 meV and below
  #     hydro 3 s 2.1
  #     hydro 4 d 11.6
  #     hydro 3 p 16
  #     hydro 2 s 17.2
  ################################################################################
  #
  #  FHI-aims code project
  #  VB, Fritz-Haber Institut, 2009
  #
  #  Suggested "light" defaults for H atom (to be pasted into control.in file)
  #  Be sure to double-check any results obtained with these settings for post-processing,
  #  e.g., with the "tight" defaults and larger basis sets.
  #
  ################################################################################
    species        H
  #     global species definitions
      nucleus             1
      mass                1.00794
  #
      l_hartree           6
  #
      cut_pot             4.0  2.0  1.0
      basis_dep_cutoff    1e-4
  #
      radial_base         24 7.0
      radial_multiplier   2
      angular_grids       specified
        division   0.2421   50
        division   0.3822  110
        division   0.4799  194
        division   0.5341  302
        division   0.5626  434
  #      division   0.5922  590
  #      division   0.6542  770
  #      division   0.6868 1202
  #      outer_grid  770
        outer_grid  434
  ################################################################################
  #
  #  Definition of "minimal" basis
  #
  ################################################################################
  #     valence basis states
      valence      1  s   1.
  #     ion occupancy
      ion_occ      1  s   0.5
  ################################################################################
  #
  #  Suggested additional basis functions. For production calculations,
  #  uncomment them one after another (the most important basis functions are
  #  listed first).
  #
  #  Basis constructed for dimers: 0.5 A, 0.7 A, 1.0 A, 1.5 A, 2.5 A
  #
  ################################################################################
  #  "First tier" - improvements: -1014.90 meV to -62.69 meV
       hydro 2 s 2.1
       hydro 2 p 3.5
  #  "Second tier" - improvements: -12.89 meV to -1.83 meV
      hydro 1 s 0.85
      hydro 2 p 3.7
      hydro 2 s 1.2
      hydro 3 d 7
  #  "Third tier" - improvements: -0.25 meV to -0.12 meV
  #    hydro 4 f 11.2
  #    hydro 3 p 4.8
  #    hydro 4 d 9
  #    hydro 3 s 3.2
  #
  
  
  -----------------------------------------------------------------------
  Completed first pass over input file control.in .
  -----------------------------------------------------------------------
  
  
  -----------------------------------------------------------------------
  Parsing geometry.in (first pass over file, find array dimensions only).
  The contents of geometry.in will be repeated verbatim below
  unless switched off by setting 'verbatim_writeout .false.' .
  in the first line of geometry.in .
  -----------------------------------------------------------------------
  
  #=======================================================
  # FHI-aims file: qmdata/data/geoms/334.in
  # Created using the Atomic Simulation Environment (ASE)
  # Wed Sep 21 12:30:23 2022
  #=======================================================
  lattice_vector 5.0000000000000000 0.0000000000000000 0.0000000000000000
  lattice_vector 0.0000000000000000 5.0000000000000000 0.0000000000000000
  lattice_vector 0.0000000000000000 0.0000000000000000 5.0000000000000000
  atom 0.0662294500000000 0.0149194100000000 0.0036948600000000 O
  atom -0.6072527599999999 -0.8357965100000000 -0.0338779300000000 H
  atom -0.4439426000000000 0.5989952700000000 -0.0247670500000000 H
  
  -----------------------------------------------------------------------
  Completed first pass over input file geometry.in .
  -----------------------------------------------------------------------
  

  Basic array size parameters:
  | Number of species                 :        2
  | Number of atoms                   :        3
  | Number of lattice vectors         :        3
  | Max. basis fn. angular momentum   :        4
  | Max. atomic/ionic basis occupied n:        2
  | Max. number of basis fn. types    :        2
  | Max. radial fns per species/type  :        8
  | Max. logarithmic grid size        :     1301
  | Max. radial integration grid size :       73
  | Max. angular integration grid size:      434
  | Max. angular grid division number :        8
  | Radial grid for Hartree potential :     1301
  | Number of spin channels           :        1

------------------------------------------------------------
          Reading file control.in.
------------------------------------------------------------
  XC: Using PBE gradient-corrected functionals.
  Spin treatment: No spin polarisation.
  Non-relativistic treatment of kinetic energy.
  Charge =   0.000000E+00: Neutral system requested explicitly.
  DFPT calculation will begin after the DFT/HF calculation.
  Convergence accuracy of self-consistent charge density:  0.1000E-05
  Found k-point grid:         1         1         1
  Threshold value for wave function integration:  0.1000E-07
 
  Reading configuration options for species O                   .
  | Found nuclear charge :   8.0000
  | Found atomic mass :    15.9994000000000      amu
  | Found l_max for Hartree potential  :   6
  | Found cutoff potl. onset [A], width [A], scale factor :    4.00000    2.00000    1.00000
  | Threshold for basis-dependent cutoff potential is   0.100000E-03
  | Found data for basic radial integration grid :    36 points, outermost radius =    7.000 A
  | Found multiplier for basic radial grid :   2
  | Found angular grid specification: user-specified.
  | Specified grid contains     6 separate shells.
  | Check grid settings after all constraints further below.
  | Found free-atom valence shell :  2 s   2.000
  | Found free-atom valence shell :  2 p   4.000
  | No ionic wave fns used. Skipping ion_occ.
  | No ionic wave fns used. Skipping ion_occ.
  | Found hydrogenic basis function :  2 p   1.800
  | Found hydrogenic basis function :  3 d   7.600
  | Found hydrogenic basis function :  3 s   6.400
  | Found hydrogenic basis function :  4 f  11.600
  | Found hydrogenic basis function :  3 p   6.200
  | Found hydrogenic basis function :  3 d   5.600
  | Found hydrogenic basis function :  5 g  17.600
  | Found hydrogenic basis function :  1 s   0.750
  Species O                   : Missing cutoff potential type.
  Defaulting to exp(1/x)/(1-x)^2 type cutoff potential.
  Species O : No 'logarithmic' tag. Using default grid for free atom:
  | Default logarithmic grid data [bohr] : 0.1000E-03 0.1000E+03 0.1012E+01
  Species O : On-site basis accuracy parameter (for Gram-Schmidt orthonormalisation) not specified.
  Using default value basis_acc =  0.1000000E-03.
  Species O                   : Using default innermost maximum threshold i_radial=  2 for radial functions.
  Species O                   : Default cutoff onset for free atom density etc. : 0.40000000E+01 AA.
  Species O                   : Basic radial grid will be enhanced according to radial_multiplier =   2, to contain    73 grid points.
 
  Reading configuration options for species H                   .
  | Found nuclear charge :   1.0000
  | Found atomic mass :    1.00794000000000      amu
  | Found l_max for Hartree potential  :   6
  | Found cutoff potl. onset [A], width [A], scale factor :    4.00000    2.00000    1.00000
  | Threshold for basis-dependent cutoff potential is   0.100000E-03
  | Found data for basic radial integration grid :    24 points, outermost radius =    7.000 A
  | Found multiplier for basic radial grid :   2
  | Found angular grid specification: user-specified.
  | Specified grid contains     6 separate shells.
  | Check grid settings after all constraints further below.
  | Found free-atom valence shell :  1 s   1.000
  | No ionic wave fns used. Skipping ion_occ.
  | Found hydrogenic basis function :  2 s   2.100
  | Found hydrogenic basis function :  2 p   3.500
  | Found hydrogenic basis function :  1 s   0.850
  | Found hydrogenic basis function :  2 p   3.700
  | Found hydrogenic basis function :  2 s   1.200
  | Found hydrogenic basis function :  3 d   7.000
  Species H                   : Missing cutoff potential type.
  Defaulting to exp(1/x)/(1-x)^2 type cutoff potential.
  Species H : No 'logarithmic' tag. Using default grid for free atom:
  | Default logarithmic grid data [bohr] : 0.1000E-03 0.1000E+03 0.1012E+01
  Species H : On-site basis accuracy parameter (for Gram-Schmidt orthonormalisation) not specified.
  Using default value basis_acc =  0.1000000E-03.
  Species H                   : Using default innermost maximum threshold i_radial=  2 for radial functions.
  Species H                   : Default cutoff onset for free atom density etc. : 0.40000000E+01 AA.
  Species H                   : Basic radial grid will be enhanced according to radial_multiplier =   2, to contain    49 grid points.
 
  Finished reading input file 'control.in'.
 
------------------------------------------------------------


------------------------------------------------------------
          Reading geometry description geometry.in.
------------------------------------------------------------
  | The smallest distance between any two atoms is         0.77603493 AA.
  | The first atom of this pair is atom number                      1 .
  | The second atom of this pair is atom number                     3 .
  | Wigner-Seitz cell of the first atom image           0     0     0 .
  | (The Wigner-Seitz cell of the second atom is 0 0 0  by definition.)

  Symmetry information by spglib:
  | Precision set to  0.1E-04
  | Number of Operations  : 1
  | Space group           : 1
  | International         : P1       Z
  | Schoenflies           : C1^1
  Input structure read successfully.
  The structure contains        3 atoms,  and a total of         10.000 electrons.

  Input geometry:
  | Unit cell:
  |        5.00000000        0.00000000        0.00000000
  |        0.00000000        5.00000000        0.00000000
  |        0.00000000        0.00000000        5.00000000
  | Atomic structure:
  |       Atom                x [A]            y [A]            z [A]
  |    1: Species O             0.06622945        0.01491941        0.00369486
  |    2: Species H            -0.60725276       -0.83579651       -0.03387793
  |    3: Species H            -0.44394260        0.59899527       -0.02476705

  Lattice parameters for 3D lattice (in Angstroms) :     5.000000    5.000000    5.000000
  Angle(s) between unit vectors (in degrees)       :    90.000000   90.000000   90.000000


  Quantities derived from the lattice vectors (in Angstrom^-1):
  | Reciprocal lattice vector 1:  1.256637  0.000000  0.000000
  | Reciprocal lattice vector 2:  0.000000  1.256637  0.000000
  | Reciprocal lattice vector 3:  0.000000  0.000000  1.256637
  | Unit cell volume                               :   0.125000E+03  Angstrom^3

  Fractional coordinates:
                         L1                L2                L3
       atom_frac         0.01324589        0.00298388        0.00073897  O
       atom_frac        -0.12145055       -0.16715930       -0.00677559  H
       atom_frac        -0.08878852        0.11979905       -0.00495341  H

 
  Finished reading input file 'geometry.in'.
 

 
  Consistency checks for stacksize environment parameter are next.
 
  | Maximum stacksize for task 0: unlimited
  | Maximum stacksize for task 1: unlimited
  | Maximum stacksize for task 2: unlimited
  | Maximum stacksize for task 3: unlimited
  | Maximum stacksize for task 4: unlimited
  | Maximum stacksize for task 5: unlimited
  | Maximum stacksize for task 6: unlimited
  | Maximum stacksize for task 7: unlimited
  | Maximum stacksize for task 8: unlimited
  | Maximum stacksize for task 9: unlimited
  | Maximum stacksize for task 10: unlimited
  | Maximum stacksize for task 11: unlimited
  | Maximum stacksize for task 12: unlimited
  | Maximum stacksize for task 13: unlimited
  | Maximum stacksize for task 14: unlimited
  | Maximum stacksize for task 15: unlimited
  | Current stacksize for task 0: unlimited
  | Current stacksize for task 1: unlimited
  | Current stacksize for task 2: unlimited
  | Current stacksize for task 3: unlimited
  | Current stacksize for task 4: unlimited
  | Current stacksize for task 5: unlimited
  | Current stacksize for task 6: unlimited
  | Current stacksize for task 7: unlimited
  | Current stacksize for task 8: unlimited
  | Current stacksize for task 9: unlimited
  | Current stacksize for task 10: unlimited
  | Current stacksize for task 11: unlimited
  | Current stacksize for task 12: unlimited
  | Current stacksize for task 13: unlimited
  | Current stacksize for task 14: unlimited
  | Current stacksize for task 15: unlimited
 
  Consistency checks for the contents of control.in are next.
 
  MPI_IN_PLACE appears to work with this MPI implementation.
  | Keeping use_mpi_in_place .true. (see manual).
  Target number of points in a grid batch is not set. Defaulting to  100
  Method for grid partitioning is not set. Defaulting to parallel hash+maxmin partitioning.
  Batch size limit is not set. Defaulting to    200
  By default, will store active basis functions for each batch.
  If in need of memory, prune_basis_once .false. can be used to disable this option.
  communication_type for Hartree potential was not specified.
  Defaulting to calc_hartree .
  Defaulting to Pulay charge density mixer.
  Pulay mixer: Number of relevant iterations not set.
  Defaulting to    8 iterations.
  Pulay mixer: Number of initial linear mixing iterations not set.
  Defaulting to    0 iterations.
  Work space size for distributed Hartree potential not set.
  Defaulting to   0.200000E+03 MB.
  Mixing parameter for charge density mixing has not been set.
  Using default: charge_mix_param =     0.0500.
  The mixing parameter will be adjusted in iteration number     2 of the first full s.c.f. cycle only.
  Algorithm-dependent basis array size parameters:
  | n_max_pulay                         :        8
  Maximum number of self-consistency iterations not provided.
  Presetting  1000 iterations.
  Presetting      1001 iterations before the initial mixing cycle
  is restarted anyway using the sc_init_iter criterion / keyword.
  Presetting a factor      1.000 between actual scf density residual
  and density convergence criterion sc_accuracy_rho below which sc_init_iter
  takes no effect.
  Calculation of forces was not defined in control.in. No forces will be calculated.
  Geometry relaxation not requested: no relaxation will be performed.
  No accuracy limit for integral partition fn. given. Defaulting to  0.1000E-14.
  No occupation type (smearing scheme) given. Defaulting to Gaussian broadening, width =  0.1000E-01 eV.
  The width will be adjusted in iteration number     2 of the first full s.c.f. cycle only.
  S.C.F. convergence parameters will be adjusted in iteration number     2 of the first full s.c.f. cycle only.
  No accuracy for occupation numbers given. Defaulting to  0.1000E-12.
  No threshold value for occupation numbers given. Defaulting to  0.0000E+00.
  No accuracy for fermi level given. Defaulting to  0.1000E-19.
  Maximum # of iterations to find E_F not set. Defaulting to  200.
  Preferred method for the eigenvalue solver ('KS_method') not specified in 'control.in'.
  Calling BLACS routine to test compilation state
  Since ScaLAPACK support is enabled, defaulting to ELPA (via ELSI).
  Will not use alltoall communication since running on < 1024 CPUs.
  Threshold for basis singularities not set.
  Default threshold for basis singularities:  0.1000E-04
  partition_type (choice of integration weights) for integrals was not specified.
  | Using a version of the partition function of Stratmann and coworkers ('stratmann_sparse').
  | At each grid point, the set of atoms used to build the partition table is smoothly restricted to
  | only those atoms whose free-atom density would be non-zero at that grid point.
  Partitioning for Hartree potential was not defined. Using partition_type for integrals.
  | Adjusted default value of keyword multip_moments_threshold to:       0.10000000E-11
  | This value may affect high angular momentum components of the Hartree potential in periodic systems.
  Angular momentum expansion for Kerker preconditioner not set explicitly.
  | Using default value of   0
  No explicit requirement for turning off preconditioner.
  | By default, it will be turned off when the charge convergence reaches
  | sc_accuracy_rho  =   0.100000E-05
  No special mixing parameter while Kerker preconditioner is on.
  Using default: charge_mix_param =     0.0500.
  No q(lm)/r^(l+1) cutoff set for long-range Hartree potential.
  | Using default value of  0.100000E-09 .
  | Verify using the multipole_threshold keyword.
  Defaulting to new monopole extrapolation.
  Density update method: automatic selection selected.
  Using density matrix based charge density update.
  Using density matrix based charge density update.
  Using packed matrix style: index .
  Defaulting to use time-reversal symmetry for k-point grid.
  Charge integration errors on the 3D integration grid will be compensated
  by explicit normalization and distribution of residual charges.
  Use the "compensate_multipole_errors" flag to change this behaviour.
 
  Consistency checks for the contents of geometry.in are next.
 

  Range separation radius for Ewald summation (hartree_convergence_parameter):      5.00000000 bohr.
  Number of empty states per atom not set in control.in .
  | Since you are using a method that relies on the unoccupied spectrum
  | (MP2,GW,RPA et al.), will use the full Hamiltonian size (see below)
  | as the max. possible number of states (occupied plus empty).

  Structure-dependent array size parameters: 
  | Maximum number of distinct radial functions  :       18
  | Maximum number of basis functions            :       69
  | Number of Kohn-Sham states (occupied + empty):       69
------------------------------------------------------------

------------------------------------------------------------
          Preparing all fixed parts of the calculation.
------------------------------------------------------------
  Determining machine precision:
    2.225073858507201E-308
  Setting up grids for atomic and cluster calculations.

  Creating wave function, potential, and density for free atoms.
  Runtime choices for atomic solver:
  | atomic solver xc        : PBE
  | compute density gradient: 1
  | compute kinetic density : F

  Species: O

  List of occupied orbitals and eigenvalues:
    n    l              occ      energy [Ha]    energy [eV]
    1    0           2.0000       -18.898576      -514.2564
    2    0           2.0000        -0.878795       -23.9132
    2    1           4.0000        -0.332075        -9.0362


  Species: H

  List of occupied orbitals and eigenvalues:
    n    l              occ      energy [Ha]    energy [eV]
    1    0           1.0000        -0.238382        -6.4867


  Adding cutoff potential to free-atom effective potential.
  Creating fixed part of basis set: Ionic, confined, hydrogenic.
 
  O                    hydrogenic:
 
  List of hydrogenic basis orbitals: 
    n    l      effective z      eigenvalue [eV]  inner max. [A]     outer max. [A]     outer radius [A]   
    2    1         1.800000       -11.0118           1.178562           1.178562           5.567066
    3    2         7.600000       -87.3182           0.624125           0.624125           3.764702
    3    0         6.400000       -61.9209           0.061167           1.081902           4.522403
    4    3        11.600000      -114.4238           0.731631           0.731631           3.811008
    3    1         6.200000       -58.1113           0.255680           1.030270           4.522403
    3    2         5.600000       -47.4081           0.847233           0.847233           4.578029
    5    4        17.600000      -168.5799           0.749740           0.749740           3.629133
    1    0         0.750000        -7.6499           0.705284           0.705284           5.567066
 
 
  H                    hydrogenic:
 
  List of hydrogenic basis orbitals: 
    n    l      effective z      eigenvalue [eV]  inner max. [A]     outer max. [A]     outer radius [A]   
    2    0         2.100000       -14.9965           0.193243           1.317208           5.573719
    2    1         3.500000       -41.6672           0.602369           0.602369           4.259334
    1    0         0.850000        -9.8292           0.624871           0.624871           5.573719
    2    1         3.700000       -46.5653           0.573622           0.573622           4.105953
    2    0         1.200000        -4.5995           0.334980           2.228188           5.642276
    3    2         7.000000       -74.0753           0.680699           0.680699           3.958095
 
  Creating atomic-like basis functions for current effective potential.

  Species O                   :

  List of atomic basis orbitals and eigenvalues:
    n    l      energy [Ha]    energy [eV]    outer radius [A]
    1    0       -18.898576      -514.2564       1.807907
    2    0        -0.878795       -23.9132       5.366593
    2    1        -0.332075        -9.0362       5.499423


  Species H                   :

  List of atomic basis orbitals and eigenvalues:
    n    l      energy [Ha]    energy [eV]    outer radius [A]
    1    0        -0.238382        -6.4867       5.573719

  Assembling full basis from fixed parts.
  | Species O :   atomic orbital   1 s accepted.
  | Species O :    hydro orbital   3 s accepted.
  | Species O :   atomic orbital   2 s accepted.
  | Species O :    hydro orbital   1 s accepted.
  | Species O :    hydro orbital   3 p accepted.
  | Species O :   atomic orbital   2 p accepted.
  | Species O :    hydro orbital   2 p accepted.
  | Species O :    hydro orbital   3 d accepted.
  | Species O :    hydro orbital   3 d accepted.
  | Species O :    hydro orbital   4 f accepted.
  | Species O :    hydro orbital   5 g accepted.
  | Species H :   atomic orbital   1 s accepted.
  | Species H :    hydro orbital   2 s accepted.
  | Species H :    hydro orbital   1 s accepted.
  | Species H :    hydro orbital   2 s accepted.
  | Species H :    hydro orbital   2 p accepted.
  | Species H :    hydro orbital   2 p accepted.
  | Species H :    hydro orbital   3 d accepted.
 
  Basis size parameters after reduction:
  | Total number of radial functions:       18
  | Total number of basis functions :       69
 
  Per-task memory consumption for arrays in subroutine allocate_ext:
  |           4.499020MB.
  Testing on-site integration grid accuracy.
  |  Species  Function  <phi|h_atom|phi> (log., in eV)  <phi|h_atom|phi> (rad., in eV)
           1        1               -514.2564144315               -514.2564099626
           1        2                 15.1726678541                 15.1726530877
           1        3                -21.5447785304                -21.5447874973
           1        4                 14.4944558459                 14.4944698284
           1        5                 20.8882174564                 20.8882178906
           1        6                 -2.4850315909                 -2.4850322289
           1        7                 13.8600193195                 13.8599826966
           1        8                 45.8243383616                 45.8243383675
           1        9                 52.1840606465                 52.1840622440
           1       10                 85.4074185510                 85.4074185819
           1       11                142.0983717302                142.0983717339
           2       12                 -6.4869821809                 -6.4870742227
           2       13                 13.5044133542                 13.5041049177
           2       14                 32.7854418792                 32.7779770519
           2       15                 33.7995553101                 33.7152624900 ***
           2       16                 28.8558651799                 28.8558652046
           2       17                 59.6361831893                 59.6362535845
           2       18                 60.2733718049                 60.2733715484
 * Note: Onsite integrals marked "***" above are less accurate than
 * onsite_accuracy_threshold =    0.03000 eV. Usually, this is harmless.
 * When in doubt, tighten the "radial" and/or "radial_multiplier" flags to check.

  Preparing densities etc. for the partition functions (integrals / Hartree potential).

  Preparations completed.
  max(cpu_time)          :      0.132 s.
  Wall clock time (cpu1) :      0.142 s.
------------------------------------------------------------

  Initializing index lists of integration centers etc. from given atomic structure:
  Mapping all atomic coordinates to central unit cell.

  Initializing the k-points
  Using symmetry for reducing the k-points
  | k-points reduced from:        1 to        1
  | Number of k-points                             :         1
  | Consuming          0 KiB for k_phase_exx.
  The eigenvectors in the calculations are REAL.
  | Number of basis functions in the Hamiltonian integrals :      1565
  | Number of basis functions in a single unit cell        :        69
  | Number of centers in hartree potential         :       653
  | Number of centers in hartree multipole         :       243
  | Number of centers in electron density summation:       186
  | Number of centers in basis integrals           :       205
  | Number of centers in integrals                 :        81
  | Number of centers in hamiltonian               :       186
  | Consuming          1 KiB for k_phase.
  | Number of super-cells (origin) [n_cells]                     :        1331
  | Number of super-cells (after PM_index) [n_cells]             :          70
  | Number of super-cells in hamiltonian [n_cells_in_hamiltonian]:          70
  | Size of matrix packed + index [n_hamiltonian_matrix_size] :       62302
  | Size of matrix packed + index (no_symmetry):      122606

------------------------------------------------------------
          Begin self-consistency loop: Initialization.

          Date     :  20221003, Time     :  101226.908
------------------------------------------------------------
  | Estimated reciprocal-space cutoff momentum G_max:         1.90186217 bohr^-1 .
  | Reciprocal lattice points for long-range Hartree potential:      92
  Using simple linear distribution as default method for k-point parallelism.
  * Using 16 tasks for Scalapack Eigenvalue solver.
  Detailed listing of tasks and assigned k-points:
   Task     0 k-point     1 on mpsd-hpc-ibm-056
   Task     1 k-point     1 on mpsd-hpc-ibm-056
   Task     2 k-point     1 on mpsd-hpc-ibm-056
   Task     3 k-point     1 on mpsd-hpc-ibm-056
   Task     4 k-point     1 on mpsd-hpc-ibm-057
   Task     5 k-point     1 on mpsd-hpc-ibm-057
   Task     6 k-point     1 on mpsd-hpc-ibm-057
   Task     7 k-point     1 on mpsd-hpc-ibm-057
   Task     8 k-point     1 on mpsd-hpc-ibm-058
   Task     9 k-point     1 on mpsd-hpc-ibm-058
   Task    10 k-point     1 on mpsd-hpc-ibm-058
   Task    11 k-point     1 on mpsd-hpc-ibm-058
   Task    12 k-point     1 on mpsd-hpc-ibm-059
   Task    13 k-point     1 on mpsd-hpc-ibm-059
   Task    14 k-point     1 on mpsd-hpc-ibm-059
   Task    15 k-point     1 on mpsd-hpc-ibm-059
  K-point:     1 Tasks:    16 split into      4 X      4 BLACS grid
  Calculating block size based on n_basis =           69  max_nprow =            4  max_npcol =            4
  ScaLAPACK block size set to:           16
  Allocating        0.003 MB for ovlp
  Allocating        0.003 MB for ham
  Allocating        0.003 MB for eigenvec
  Required Scalapack workspace - INTEGER:            1  REAL:             1
  Partitioning the integration grid into batches with parallel hashing+maxmin method.
  | Number of batches:      506
  | Maximal batch size:     166
  | Minimal batch size:      52
  | Average batch size:      92.668
  | Standard deviation of batch sizes:      24.058

  Integration load balanced across    16 MPI tasks.
  Work distribution over tasks is as follows:
  Task     0 has       2917 integration points.
  Task     1 has       2969 integration points.
  Task     2 has       2956 integration points.
  Task     3 has       2889 integration points.
  Task     4 has       2910 integration points.
  Task     5 has       2905 integration points.
  Task     6 has       2954 integration points.
  Task     7 has       2951 integration points.
  Task     8 has       2934 integration points.
  Task     9 has       2919 integration points.
  Task    10 has       2939 integration points.
  Task    11 has       2957 integration points.
  Task    12 has       2930 integration points.
  Task    13 has       2944 integration points.
  Task    14 has       2905 integration points.
  Task    15 has       2911 integration points.
  Initializing partition tables, free-atom densities, potentials, etc. across the integration grid (initialize_grid_storage).
  | initialize_grid_storage: Actual outermost partition radius vs. multipole_radius_free
  | (-- VB: in principle, multipole_radius_free should be larger, hence this output)
  | Species        1: Confinement radius =              6.000000000000000 AA, multipole_radius_free =              6.064445521808699 AA.
  | Species        1: outer_partition_radius set to              6.064445521808699 AA .
  | Species        2: Confinement radius =              6.000000000000000 AA, multipole_radius_free =              6.071692442739658 AA.
  | Species        2: outer_partition_radius set to              6.071692442739658 AA .
  | The sparse table of interatomic distances needs        409.95 kbyte instead of       336.20 kbyte of memory.
  | Using the partition_type stratmann_smoother will reduce your memory usage.
  | Net number of integration points:    46890
  | of which are non-zero points    :    37301
  | Numerical average free-atom electrostatic potential    :     -1.29049397 eV
  Renormalizing the initial density to the exact electron count on the 3D integration grid.
  | Initial density: Formal number of electrons (from input files) :      10.0000000000
  | Integrated number of electrons on 3D grid     :      10.0000051069
  | Charge integration error                      :       0.0000051069
  | Normalization factor for density and gradient :       0.9999994893
  Renormalizing the free-atom superposition density to the exact electron count on the 3D integration grid.
  | Formal number of electrons (from input files) :      10.0000000000
  | Integrated number of electrons on 3D grid     :      10.0000051069
  | Charge integration error                      :       0.0000051069
  | Normalization factor for density and gradient :       0.9999994893
  Obtaining max. number of non-zero basis functions in each batch (get_n_compute_maxes).
  | Maximal number of non-zero basis functions:      431 in task     0
  | Maximal number of non-zero basis functions:      401 in task     1
  | Maximal number of non-zero basis functions:      415 in task     2
  | Maximal number of non-zero basis functions:      331 in task     3
  | Maximal number of non-zero basis functions:      402 in task     4
  | Maximal number of non-zero basis functions:      334 in task     5
  | Maximal number of non-zero basis functions:      381 in task     6
  | Maximal number of non-zero basis functions:      431 in task     7
  | Maximal number of non-zero basis functions:      378 in task     8
  | Maximal number of non-zero basis functions:      420 in task     9
  | Maximal number of non-zero basis functions:      415 in task    10
  | Maximal number of non-zero basis functions:      352 in task    11
  | Maximal number of non-zero basis functions:      360 in task    12
  | Maximal number of non-zero basis functions:      391 in task    13
  | Maximal number of non-zero basis functions:      353 in task    14
  | Maximal number of non-zero basis functions:      348 in task    15
  Integrating Hamiltonian matrix: batch-based integration.
  Time summed over all CPUs for integration: real work        1.071 s, elapsed        1.455 s => Consider using load balancing!
  Integrating overlap matrix.
  Time summed over all CPUs for integration: real work        0.600 s, elapsed        0.645 s
  Deallocating overlap matrix.

  Updating Kohn-Sham eigenvalues and eigenvectors using ELSI and the ELPA eigensolver.
  Singularity check in k-point 1 (analysis for other k-points may follow below):
  Overlap matrix is not singular
  | Lowest and highest eigenvalues :  0.1436E-03,  0.6953E+01
  Finished singularity check of overlap matrix
  | Time :     0.004 s
  Starting ELPA eigensolver
  Finished Cholesky decomposition
  | Time :     0.002 s
  Finished transformation to standard eigenproblem
  | Time :     0.001 s
  Finished solving standard eigenproblem
  | Time :     0.004 s
  Finished back-transformation of eigenvectors
  | Time :     0.001 s

  Obtaining occupation numbers and electronic chemical potential using ELSI.
  | Note that, for insulating systems, the printed 'chemical potential' value is not uniquely defined.
  | It can be anywhere in the energy gap, as long as it correctly separates occupied and unoccupied states.
  | In systems with a gap, the physically relevant chemical potential is the VBM or HOMO.

  | Chemical potential (Fermi level):    -7.94615573 eV
  Writing Kohn-Sham eigenvalues.

  State    Occupation    Eigenvalue [Ha]    Eigenvalue [eV]
      1       2.00000         -19.044796         -518.23527
      2       2.00000          -1.170158          -31.84163
      3       2.00000          -0.655725          -17.84320
      4       2.00000          -0.534163          -14.53532
      5       2.00000          -0.462502          -12.58533
      6       0.00000          -0.119244           -3.24478
      7       0.00000           0.026649            0.72516
      8       0.00000           0.121928            3.31782
      9       0.00000           0.183723            4.99936
     10       0.00000           0.203093            5.52645
     11       0.00000           0.224343            6.10468
     12       0.00000           0.324431            8.82822
     13       0.00000           0.399411           10.86852
     14       0.00000           0.453355           12.33642
     15       0.00000           0.459989           12.51693
     16       0.00000           0.520343           14.15926
     17       0.00000           0.534621           14.54779
     18       0.00000           0.738762           20.10274
     19       0.00000           0.900035           24.49119
     20       0.00000           0.949854           25.84684
     21       0.00000           1.037338           28.22740
     22       0.00000           1.087519           29.59288
     23       0.00000           1.103130           30.01771
     24       0.00000           1.131539           30.79074
     25       0.00000           1.385039           37.68883
     26       0.00000           1.408893           38.33792
     27       0.00000           1.446507           39.36147
     28       0.00000           1.818565           49.48568
     29       0.00000           2.059400           56.03913
     30       0.00000           2.148473           58.46292
     31       0.00000           2.202259           59.92652
     32       0.00000           2.294957           62.44895
     33       0.00000           2.385385           64.90964
     34       0.00000           2.425373           65.99777
     35       0.00000           2.694652           73.32520
     36       0.00000           2.740212           74.56496
     37       0.00000           2.753854           74.93619
     38       0.00000           2.904387           79.03240
     39       0.00000           3.000303           81.64239
     40       0.00000           3.257543           88.64226
     41       0.00000           3.333975           90.72208
     42       0.00000           3.455798           94.03704
     43       0.00000           3.582131           97.47474
     44       0.00000           3.585641           97.57025
     45       0.00000           3.646601           99.22906
     46       0.00000           3.720479          101.23938
     47       0.00000           3.891875          105.90332
     48       0.00000           4.083552          111.11909
     49       0.00000           4.240602          115.39265
     50       0.00000           4.317291          117.47948
     51       0.00000           4.399599          119.71919
     52       0.00000           4.967670          135.17718
     53       0.00000           5.063863          137.79472
     54       0.00000           5.113763          139.15258
     55       0.00000           5.316800          144.67748
     56       0.00000           5.518184          150.15744
     57       0.00000           5.973054          162.53508
     58       0.00000           6.081193          165.47769
     59       0.00000           6.158658          167.58560
     60       0.00000           6.300001          171.43176
     61       0.00000           6.394876          174.01344
     62       0.00000           6.670438          181.51186
     63       0.00000           6.958870          189.36048
     64       0.00000           7.203476          196.01657
     65       0.00000           7.451618          202.76885
     66       0.00000           8.362626          227.55862
     67       0.00000           9.035733          245.87481
     68       0.00000           9.212113          250.67435
     69       0.00000          10.227836          278.31359

  Highest occupied state (VBM) at    -12.58533212 eV (relative to internal zero)
  | Occupation number:      2.00000000
  | K-point:       1 at    0.000000    0.000000    0.000000 (in units of recip. lattice)

  Lowest unoccupied state (CBM) at    -3.24478131 eV (relative to internal zero)
  | Occupation number:      0.00000000
  | K-point:       1 at    0.000000    0.000000    0.000000 (in units of recip. lattice)

  ESTIMATED overall HOMO-LUMO gap:      9.34055081 eV between HOMO at k-point 1 and LUMO at k-point 1
  The gap value is above 0.2 eV. Unless you are using a very sparse k-point grid,
  this system is most likely an insulator or a semiconductor.
  Calculating total energy contributions from superposition of free atom densities.

  Total energy components:
  | Sum of eigenvalues            :         -43.73469053 Ha       -1190.08148004 eV
  | XC energy correction          :          -9.03887676 Ha        -245.96035088 eV
  | XC potential correction       :          11.62273770 Ha         316.27078456 eV
  | Free-atom electrostatic energy:         -35.26990431 Ha        -959.74292751 eV
  | Hartree energy correction     :           0.00000000 Ha           0.00000000 eV
  | Entropy correction            :           0.00000000 Ha           0.00000000 eV
  | ---------------------------
  | Total energy                  :         -76.42073390 Ha       -2079.51397387 eV
  | Total energy, T -> 0          :         -76.42073390 Ha       -2079.51397387 eV  <-- do not rely on this value for anything but (periodic) metals
  | Electronic free energy        :         -76.42073390 Ha       -2079.51397387 eV

  Derived energy quantities:
  | Kinetic energy                :          75.55809190 Ha        2056.04029091 eV
  | Electrostatic energy          :        -142.93994905 Ha       -3889.59391390 eV
  | Energy correction for multipole
  | error in Hartree potential    :           0.00000000 Ha           0.00000000 eV
  | Sum of eigenvalues per atom                           :        -396.69382668 eV
  | Total energy (T->0) per atom                          :        -693.17132462 eV  <-- do not rely on this value for anything but (periodic) metals
  | Electronic free energy per atom                       :        -693.17132462 eV
  Initialize hartree_potential_storage
  Max. number of atoms included in rho_multipole:            3

  End scf initialization - timings             :  max(cpu_time)    wall_clock(cpu1)
  | Time for scf. initialization                :        0.300 s           0.298 s
  | Boundary condition initialization           :        0.048 s           0.046 s
  | Integration                                 :        0.140 s           0.140 s
  | Solution of K.-S. eqns.                     :        0.028 s           0.028 s
  | Grid partitioning                           :        0.032 s           0.031 s
  | Preloading free-atom quantities on grid     :        0.084 s           0.077 s
  | Free-atom superposition energy              :        0.012 s           0.011 s
  | Total energy evaluation                     :        0.004 s           0.001 s

  Partial memory accounting:
  | Current value for overall tracked memory usage:
  |   Minimum:        0.720 MB (on task  5)
  |   Maximum:        0.724 MB (on task  0)
  |   Average:        0.721 MB
  | Peak value for overall tracked memory usage:
  |   Minimum:        3.298 MB (on task  3 after allocating wave)
  |   Maximum:        4.264 MB (on task  0 after allocating wave)
  |   Average:        3.796 MB
  | Largest tracked array allocation so far:
  |   Minimum:        0.836 MB (hamiltonian_shell on task  3)
  |   Maximum:        1.417 MB (hamiltonian_shell on task  0)
  |   Average:        1.133 MB
  Note:  These values currently only include a subset of arrays which are explicitly tracked.
  The "true" memory usage will be greater.
------------------------------------------------------------
  Evaluating new KS density using the density matrix
  Evaluating density matrix
  Finished density matrix calculation
  | Time :     0.000 s
  Time summed over all CPUs for getting density from density matrix: real work        2.056 s, elapsed        2.437 s
  Integration grid: deviation in total charge (<rho> - N_e) =   1.776357E-15

  Time for density update prior                :  max(cpu_time)    wall_clock(cpu1)
  | self-consistency iterative process          :        0.156 s           0.156 s

------------------------------------------------------------
          Begin self-consistency iteration #    1

  Date     :  20221003, Time     :  101227.364
------------------------------------------------------------
  Pulay mixing of updated and previous charge densities.
  Renormalizing the density to the exact electron count on the 3D integration grid.
  | Formal number of electrons (from input files) :      10.0000000000
  | Integrated number of electrons on 3D grid     :       9.9996443455
  | Charge integration error                      :      -0.0003556545
  | Normalization factor for density and gradient :       1.0000355667

  Evaluating partitioned Hartree potential by multipole expansion.
  | Original multipole sum: apparent total charge =  -0.590499E-14
  | Sum of charges compensated after spline to logarithmic grids =   0.721857E-07
  | Analytical far-field extrapolation by fixed multipoles:
  | Hartree multipole sum: apparent total charge =  -0.589885E-14
  Summing up the Hartree potential.
  Time summed over all CPUs for potential: real work        2.399 s, elapsed        2.485 s
  | RMS charge density error from multipole expansion :   0.135986E-03
  | Average real-space part of the electrostatic potential :      0.01009430 eV

  Integrating Hamiltonian matrix: batch-based integration.
  Time summed over all CPUs for integration: real work        1.057 s, elapsed        1.121 s

  Updating Kohn-Sham eigenvalues and eigenvectors using ELSI and the ELPA eigensolver.
  Starting ELPA eigensolver
  Finished transformation to standard eigenproblem
  | Time :     0.001 s
  Finished solving standard eigenproblem
  | Time :     0.004 s
  Finished back-transformation of eigenvectors
  | Time :     0.001 s

  Obtaining occupation numbers and electronic chemical potential using ELSI.
  | Note that, for insulating systems, the printed 'chemical potential' value is not uniquely defined.
  | It can be anywhere in the energy gap, as long as it correctly separates occupied and unoccupied states.
  | In systems with a gap, the physically relevant chemical potential is the VBM or HOMO.

  | Chemical potential (Fermi level):    -7.39154023 eV
  Writing Kohn-Sham eigenvalues.

  State    Occupation    Eigenvalue [Ha]    Eigenvalue [eV]
      1       2.00000         -19.010314         -517.29696
      2       2.00000          -1.153861          -31.39815
      3       2.00000          -0.641610          -17.45909
      4       2.00000          -0.518563          -14.11082
      5       2.00000          -0.445764          -12.12987
      6       0.00000          -0.117506           -3.19751
      7       0.00000           0.029966            0.81541
      8       0.00000           0.124672            3.39250
      9       0.00000           0.187017            5.08899
     10       0.00000           0.205391            5.58897
     11       0.00000           0.226949            6.17560
     12       0.00000           0.326622            8.88783
     13       0.00000           0.402064           10.94071
     14       0.00000           0.456117           12.41159
     15       0.00000           0.463474           12.61177
     16       0.00000           0.524602           14.27513
     17       0.00000           0.536895           14.60966
     18       0.00000           0.744011           20.24558
     19       0.00000           0.902758           24.56531
     20       0.00000           0.952802           25.92705
     21       0.00000           1.041517           28.34113
     22       0.00000           1.092763           29.73558
     23       0.00000           1.109137           30.18115
     24       0.00000           1.137432           30.95111
     25       0.00000           1.393859           37.92884
     26       0.00000           1.420059           38.64177
     27       0.00000           1.454739           39.58546
     28       0.00000           1.825830           49.68336
     29       0.00000           2.064348           56.17378
     30       0.00000           2.155567           58.65596
     31       0.00000           2.208020           60.08329
     32       0.00000           2.304723           62.71469
     33       0.00000           2.391543           65.07718
     34       0.00000           2.435214           66.26553
     35       0.00000           2.702271           73.53252
     36       0.00000           2.747747           74.77001
     37       0.00000           2.760196           75.10876
     38       0.00000           2.908698           79.14971
     39       0.00000           3.008505           81.86560
     40       0.00000           3.266508           88.88621
     41       0.00000           3.342414           90.95170
     42       0.00000           3.463173           94.23774
     43       0.00000           3.588554           97.64954
     44       0.00000           3.594855           97.82099
     45       0.00000           3.654116           99.43354
     46       0.00000           3.728058          101.44563
     47       0.00000           3.903416          106.21736
     48       0.00000           4.094434          111.41523
     49       0.00000           4.244611          115.50173
     50       0.00000           4.327830          117.76623
     51       0.00000           4.410177          120.00703
     52       0.00000           4.975660          135.39460
     53       0.00000           5.073049          138.04468
     54       0.00000           5.123142          139.40779
     55       0.00000           5.327154          144.95922
     56       0.00000           5.528880          150.44847
     57       0.00000           5.984054          162.83439
     58       0.00000           6.091590          165.76058
     59       0.00000           6.168378          167.85009
     60       0.00000           6.310327          171.71272
     61       0.00000           6.406171          174.32079
     62       0.00000           6.678116          181.72077
     63       0.00000           6.970261          189.67044
     64       0.00000           7.213874          196.29950
     65       0.00000           7.463069          203.08043
     66       0.00000           8.377657          227.96765
     67       0.00000           9.049106          246.23871
     68       0.00000           9.226491          251.06560
     69       0.00000          10.240308          278.65296

  Highest occupied state (VBM) at    -12.12986519 eV (relative to internal zero)
  | Occupation number:      2.00000000
  | K-point:       1 at    0.000000    0.000000    0.000000 (in units of recip. lattice)

  Lowest unoccupied state (CBM) at    -3.19750705 eV (relative to internal zero)
  | Occupation number:      0.00000000
  | K-point:       1 at    0.000000    0.000000    0.000000 (in units of recip. lattice)

  ESTIMATED overall HOMO-LUMO gap:      8.93235814 eV between HOMO at k-point 1 and LUMO at k-point 1
  The gap value is above 0.2 eV. Unless you are using a very sparse k-point grid,
  this system is most likely an insulator or a semiconductor.

  Total energy components:
  | Sum of eigenvalues            :         -43.54022333 Ha       -1184.78975825 eV
  | XC energy correction          :          -9.06155152 Ha        -246.57736246 eV
  | XC potential correction       :          11.65219055 Ha         317.07223737 eV
  | Free-atom electrostatic energy:         -35.26990431 Ha        -959.74292751 eV
  | Hartree energy correction     :          -0.18352544 Ha          -4.99398123 eV
  | Entropy correction            :           0.00000000 Ha           0.00000000 eV
  | ---------------------------
  | Total energy                  :         -76.40301404 Ha       -2079.03179208 eV
  | Total energy, T -> 0          :         -76.40301404 Ha       -2079.03179208 eV  <-- do not rely on this value for anything but (periodic) metals
  | Electronic free energy        :         -76.40301404 Ha       -2079.03179208 eV

  Derived energy quantities:
  | Kinetic energy                :          75.71422792 Ha        2060.28896801 eV
  | Electrostatic energy          :        -143.05569045 Ha       -3892.74339764 eV
  | Energy correction for multipole
  | error in Hartree potential    :          -0.00014946 Ha          -0.00406690 eV
  | Sum of eigenvalues per atom                           :        -394.92991942 eV
  | Total energy (T->0) per atom                          :        -693.01059736 eV  <-- do not rely on this value for anything but (periodic) metals
  | Electronic free energy per atom                       :        -693.01059736 eV
  Evaluating new KS density using the density matrix
  Evaluating density matrix
  Finished density matrix calculation
  | Time :     0.000 s
  Time summed over all CPUs for getting density from density matrix: real work        1.981 s, elapsed        2.128 s
  Integration grid: deviation in total charge (<rho> - N_e) =  -7.105427E-15

  Self-consistency convergence accuracy:
  | Change of charge density      :  0.3726E+00
  | Change of unmixed KS density  :  0.9129E+01
  | Change of sum of eigenvalues  :  0.5292E+01 eV
  | Change of total energy        :  0.4822E+00 eV


------------------------------------------------------------
  End self-consistency iteration #     1       :  max(cpu_time)    wall_clock(cpu1)
  | Time for this iteration                     :        0.468 s           0.467 s
  | Charge density update                       :        0.136 s           0.136 s
  | Density mixing & preconditioning            :        0.076 s           0.075 s
  | Hartree multipole update                    :        0.004 s           0.003 s
  | Hartree multipole summation                 :        0.168 s           0.167 s
  | Integration                                 :        0.076 s           0.073 s
  | Solution of K.-S. eqns.                     :        0.008 s           0.007 s
  | Total energy evaluation                     :        0.008 s           0.002 s

  Partial memory accounting:
  | Current value for overall tracked memory usage:
  |   Minimum:        0.720 MB (on task  5)
  |   Maximum:        0.724 MB (on task  0)
  |   Average:        0.721 MB
  | Peak value for overall tracked memory usage:
  |   Minimum:        4.073 MB (on task  3 after allocating gradient_basis_wave)
  |   Maximum:        5.416 MB (on task  0 after allocating gradient_basis_wave)
  |   Average:        4.771 MB
  | Largest tracked array allocation so far:
  |   Minimum:        1.258 MB (gradient_basis_wave on task  3)
  |   Maximum:        1.638 MB (gradient_basis_wave on task  0)
  |   Average:        1.459 MB
  Note:  These values currently only include a subset of arrays which are explicitly tracked.
  The "true" memory usage will be greater.
------------------------------------------------------------

------------------------------------------------------------
          Begin self-consistency iteration #    2

  Date     :  20221003, Time     :  101227.835
------------------------------------------------------------
  Pulay mixing of updated and previous charge densities.
  Renormalizing the density to the exact electron count on the 3D integration grid.
  | Formal number of electrons (from input files) :      10.0000000000
  | Integrated number of electrons on 3D grid     :       9.9968693278
  | Charge integration error                      :      -0.0031306722
  | Normalization factor for density and gradient :       1.0003131653

  Evaluating partitioned Hartree potential by multipole expansion.
  | Original multipole sum: apparent total charge =  -0.475966E-14
  | Sum of charges compensated after spline to logarithmic grids =   0.632002E-06
  | Analytical far-field extrapolation by fixed multipoles:
  | Hartree multipole sum: apparent total charge =  -0.457518E-14
  Summing up the Hartree potential.
  Time summed over all CPUs for potential: real work        2.781 s, elapsed        3.049 s
  | RMS charge density error from multipole expansion :   0.126076E-02
  | Average real-space part of the electrostatic potential :      0.09406822 eV

  Integrating Hamiltonian matrix: batch-based integration.
  Time summed over all CPUs for integration: real work        1.073 s, elapsed        1.142 s

  Updating Kohn-Sham eigenvalues and eigenvectors using ELSI and the ELPA eigensolver.
  Starting ELPA eigensolver
  Finished transformation to standard eigenproblem
  | Time :     0.001 s
  Finished solving standard eigenproblem
  | Time :     0.004 s
  Finished back-transformation of eigenvectors
  | Time :     0.000 s

  Obtaining occupation numbers and electronic chemical potential using ELSI.
  | Note that, for insulating systems, the printed 'chemical potential' value is not uniquely defined.
  | It can be anywhere in the energy gap, as long as it correctly separates occupied and unoccupied states.
  | In systems with a gap, the physically relevant chemical potential is the VBM or HOMO.

  | Chemical potential (Fermi level):    -2.92724689 eV
  Highest occupied state (VBM) at     -8.58212747 eV (relative to internal zero)
  | Occupation number:      2.00000000
  | K-point:       1 at    0.000000    0.000000    0.000000 (in units of recip. lattice)

  Lowest unoccupied state (CBM) at    -2.79399567 eV (relative to internal zero)
  | Occupation number:      0.00000000
  | K-point:       1 at    0.000000    0.000000    0.000000 (in units of recip. lattice)

  ESTIMATED overall HOMO-LUMO gap:      5.78813179 eV between HOMO at k-point 1 and LUMO at k-point 1
  The gap value is above 0.2 eV. Unless you are using a very sparse k-point grid,
  this system is most likely an insulator or a semiconductor.

  Checking to see if s.c.f. parameters should be adjusted.
  The system likely has a gap. Increased the default Pulay mixing parameter (charge_mix_param). Value:   0.200000 .
  Kept the default occupation width. Value:   0.010000 eV.

  Total energy components:
  | Sum of eigenvalues            :         -42.01207677 Ha       -1143.20677472 eV
  | XC energy correction          :          -9.25086352 Ha        -251.72880421 eV
  | XC potential correction       :          11.89805735 Ha         323.76261334 eV
  | Free-atom electrostatic energy:         -35.26990431 Ha        -959.74292751 eV
  | Hartree energy correction     :          -1.69161008 Ha         -46.03105242 eV
  | Entropy correction            :          -0.00000000 Ha          -0.00000000 eV
  | ---------------------------
  | Total energy                  :         -76.32639734 Ha       -2076.94694553 eV
  | Total energy, T -> 0          :         -76.32639734 Ha       -2076.94694553 eV  <-- do not rely on this value for anything but (periodic) metals
  | Electronic free energy        :         -76.32639734 Ha       -2076.94694553 eV

  Derived energy quantities:
  | Kinetic energy                :          76.84888790 Ha        2091.16463708 eV
  | Electrostatic energy          :        -143.92442172 Ha       -3916.38277839 eV
  | Energy correction for multipole
  | error in Hartree potential    :          -0.00133567 Ha          -0.03634532 eV
  | Sum of eigenvalues per atom                           :        -381.06892491 eV
  | Total energy (T->0) per atom                          :        -692.31564851 eV  <-- do not rely on this value for anything but (periodic) metals
  | Electronic free energy per atom                       :        -692.31564851 eV
  Evaluating new KS density using the density matrix
  Evaluating density matrix
  Finished density matrix calculation
  | Time :     0.000 s
  Time summed over all CPUs for getting density from density matrix: real work        1.967 s, elapsed        2.342 s
  Integration grid: deviation in total charge (<rho> - N_e) =  -1.776357E-15

  Self-consistency convergence accuracy:
  | Change of charge density      :  0.3374E+00
  | Change of unmixed KS density  :  0.2563E-01
  | Change of sum of eigenvalues  :  0.4158E+02 eV
  | Change of total energy        :  0.2085E+01 eV


------------------------------------------------------------
  End self-consistency iteration #     2       :  max(cpu_time)    wall_clock(cpu1)
  | Time for this iteration                     :        0.512 s           0.512 s
  | Charge density update                       :        0.152 s           0.149 s
  | Density mixing & preconditioning            :        0.072 s           0.072 s
  | Hartree multipole update                    :        0.004 s           0.003 s
  | Hartree multipole summation                 :        0.204 s           0.204 s
  | Integration                                 :        0.076 s           0.074 s
  | Solution of K.-S. eqns.                     :        0.008 s           0.007 s
  | Total energy evaluation                     :        0.004 s           0.001 s

  Partial memory accounting:
  | Current value for overall tracked memory usage:
  |   Minimum:        0.720 MB (on task  5)
  |   Maximum:        0.724 MB (on task  0)
  |   Average:        0.721 MB
  | Peak value for overall tracked memory usage:
  |   Minimum:        4.073 MB (on task  3 after allocating gradient_basis_wave)
  |   Maximum:        5.417 MB (on task  0 after allocating gradient_basis_wave)
  |   Average:        4.772 MB
  | Largest tracked array allocation so far:
  |   Minimum:        1.258 MB (gradient_basis_wave on task  3)
  |   Maximum:        1.638 MB (gradient_basis_wave on task  0)
  |   Average:        1.459 MB
  Note:  These values currently only include a subset of arrays which are explicitly tracked.
  The "true" memory usage will be greater.
------------------------------------------------------------

------------------------------------------------------------
          Begin self-consistency iteration #    3

  Date     :  20221003, Time     :  101228.349
------------------------------------------------------------
  Pulay mixing of updated and previous charge densities.
  Renormalizing the density to the exact electron count on the 3D integration grid.
  | Formal number of electrons (from input files) :      10.0000000000
  | Integrated number of electrons on 3D grid     :       9.9986742037
  | Charge integration error                      :      -0.0013257963
  | Normalization factor for density and gradient :       1.0001325972

  Evaluating partitioned Hartree potential by multipole expansion.
  | Original multipole sum: apparent total charge =  -0.127908E-14
  | Sum of charges compensated after spline to logarithmic grids =   0.266194E-06
  | Analytical far-field extrapolation by fixed multipoles:
  | Hartree multipole sum: apparent total charge =  -0.922415E-15
  Summing up the Hartree potential.
  Time summed over all CPUs for potential: real work        2.779 s, elapsed        2.885 s
  | RMS charge density error from multipole expansion :   0.152223E-02
  | Average real-space part of the electrostatic potential :      0.09634954 eV

  Integrating Hamiltonian matrix: batch-based integration.
  Time summed over all CPUs for integration: real work        1.079 s, elapsed        1.501 s => Consider using load balancing!

  Updating Kohn-Sham eigenvalues and eigenvectors using ELSI and the ELPA eigensolver.
  Starting ELPA eigensolver
  Finished transformation to standard eigenproblem
  | Time :     0.001 s
  Finished solving standard eigenproblem
  | Time :     0.004 s
  Finished back-transformation of eigenvectors
  | Time :     0.001 s

  Obtaining occupation numbers and electronic chemical potential using ELSI.
  | Note that, for insulating systems, the printed 'chemical potential' value is not uniquely defined.
  | It can be anywhere in the energy gap, as long as it correctly separates occupied and unoccupied states.
  | In systems with a gap, the physically relevant chemical potential is the VBM or HOMO.

  | Chemical potential (Fermi level):    -4.22808763 eV
  Highest occupied state (VBM) at     -9.30775539 eV (relative to internal zero)
  | Occupation number:      2.00000000
  | K-point:       1 at    0.000000    0.000000    0.000000 (in units of recip. lattice)

  Lowest unoccupied state (CBM) at    -2.84345897 eV (relative to internal zero)
  | Occupation number:      0.00000000
  | K-point:       1 at    0.000000    0.000000    0.000000 (in units of recip. lattice)

  ESTIMATED overall HOMO-LUMO gap:      6.46429641 eV between HOMO at k-point 1 and LUMO at k-point 1
  The gap value is above 0.2 eV. Unless you are using a very sparse k-point grid,
  this system is most likely an insulator or a semiconductor.

  Total energy components:
  | Sum of eigenvalues            :         -42.38951013 Ha       -1153.47725894 eV
  | XC energy correction          :          -9.20472036 Ha        -250.47318485 eV
  | XC potential correction       :          11.83849596 Ha         322.14186537 eV
  | Free-atom electrostatic energy:         -35.26990431 Ha        -959.74292751 eV
  | Hartree energy correction     :          -1.30637721 Ha         -35.54833256 eV
  | Entropy correction            :           0.00000000 Ha           0.00000000 eV
  | ---------------------------
  | Total energy                  :         -76.33201605 Ha       -2077.09983849 eV
  | Total energy, T -> 0          :         -76.33201605 Ha       -2077.09983849 eV  <-- do not rely on this value for anything but (periodic) metals
  | Electronic free energy        :         -76.33201605 Ha       -2077.09983849 eV

  Derived energy quantities:
  | Kinetic energy                :          76.36810067 Ha        2078.08175077 eV
  | Electrostatic energy          :        -143.49539636 Ha       -3904.70840441 eV
  | Energy correction for multipole
  | error in Hartree potential    :          -0.00077349 Ha          -0.02104775 eV
  | Sum of eigenvalues per atom                           :        -384.49241965 eV
  | Total energy (T->0) per atom                          :        -692.36661283 eV  <-- do not rely on this value for anything but (periodic) metals
  | Electronic free energy per atom                       :        -692.36661283 eV
  Evaluating new KS density using the density matrix
  Evaluating density matrix
  Finished density matrix calculation
  | Time :     0.000 s
  Time summed over all CPUs for getting density from density matrix: real work        1.976 s, elapsed        2.129 s
  Integration grid: deviation in total charge (<rho> - N_e) =  -8.881784E-15

  Self-consistency convergence accuracy:
  | Change of charge density      :  0.1366E+00
  | Change of unmixed KS density  :  0.2157E+00
  | Change of sum of eigenvalues  : -0.1027E+02 eV
  | Change of total energy        : -0.1529E+00 eV


------------------------------------------------------------
  End self-consistency iteration #     3       :  max(cpu_time)    wall_clock(cpu1)
  | Time for this iteration                     :        0.512 s           0.511 s
  | Charge density update                       :        0.136 s           0.136 s
  | Density mixing & preconditioning            :        0.076 s           0.073 s
  | Hartree multipole update                    :        0.004 s           0.003 s
  | Hartree multipole summation                 :        0.196 s           0.193 s
  | Integration                                 :        0.100 s           0.096 s
  | Solution of K.-S. eqns.                     :        0.008 s           0.008 s
  | Total energy evaluation                     :        0.004 s           0.002 s

  Partial memory accounting:
  | Current value for overall tracked memory usage:
  |   Minimum:        0.720 MB (on task  5)
  |   Maximum:        0.724 MB (on task  0)
  |   Average:        0.721 MB
  | Peak value for overall tracked memory usage:
  |   Minimum:        4.073 MB (on task  3 after allocating gradient_basis_wave)
  |   Maximum:        5.417 MB (on task  0 after allocating gradient_basis_wave)
  |   Average:        4.772 MB
  | Largest tracked array allocation so far:
  |   Minimum:        1.258 MB (gradient_basis_wave on task  3)
  |   Maximum:        1.638 MB (gradient_basis_wave on task  0)
  |   Average:        1.459 MB
  Note:  These values currently only include a subset of arrays which are explicitly tracked.
  The "true" memory usage will be greater.
------------------------------------------------------------

------------------------------------------------------------
          Begin self-consistency iteration #    4

  Date     :  20221003, Time     :  101228.862
------------------------------------------------------------
  Pulay mixing of updated and previous charge densities.
  Renormalizing the density to the exact electron count on the 3D integration grid.
  | Formal number of electrons (from input files) :      10.0000000000
  | Integrated number of electrons on 3D grid     :       9.9963232799
  | Charge integration error                      :      -0.0036767201
  | Normalization factor for density and gradient :       1.0003678072

  Evaluating partitioned Hartree potential by multipole expansion.
  | Original multipole sum: apparent total charge =  -0.104909E-13
  | Sum of charges compensated after spline to logarithmic grids =   0.221469E-06
  | Analytical far-field extrapolation by fixed multipoles:
  | Hartree multipole sum: apparent total charge =  -0.112535E-13
  Summing up the Hartree potential.
  Time summed over all CPUs for potential: real work        2.893 s, elapsed        3.208 s
  | RMS charge density error from multipole expansion :   0.261363E-02
  | Average real-space part of the electrostatic potential :      0.15212672 eV

  Integrating Hamiltonian matrix: batch-based integration.
  Time summed over all CPUs for integration: real work        1.048 s, elapsed        1.111 s

  Updating Kohn-Sham eigenvalues and eigenvectors using ELSI and the ELPA eigensolver.
  Starting ELPA eigensolver
  Finished transformation to standard eigenproblem
  | Time :     0.001 s
  Finished solving standard eigenproblem
  | Time :     0.004 s
  Finished back-transformation of eigenvectors
  | Time :     0.000 s

  Obtaining occupation numbers and electronic chemical potential using ELSI.
  | Note that, for insulating systems, the printed 'chemical potential' value is not uniquely defined.
  | It can be anywhere in the energy gap, as long as it correctly separates occupied and unoccupied states.
  | In systems with a gap, the physically relevant chemical potential is the VBM or HOMO.

  | Chemical potential (Fermi level):    -2.96728767 eV
  Highest occupied state (VBM) at     -8.01861474 eV (relative to internal zero)
  | Occupation number:      2.00000000
  | K-point:       1 at    0.000000    0.000000    0.000000 (in units of recip. lattice)

  Lowest unoccupied state (CBM) at    -2.62518527 eV (relative to internal zero)
  | Occupation number:      0.00000000
  | K-point:       1 at    0.000000    0.000000    0.000000 (in units of recip. lattice)

  ESTIMATED overall HOMO-LUMO gap:      5.39342947 eV between HOMO at k-point 1 and LUMO at k-point 1
  The gap value is above 0.2 eV. Unless you are using a very sparse k-point grid,
  this system is most likely an insulator or a semiconductor.

  Total energy components:
  | Sum of eigenvalues            :         -41.89896255 Ha       -1140.12878003 eV
  | XC energy correction          :          -9.27607321 Ha        -252.41479479 eV
  | XC potential correction       :          11.93201861 Ha         324.68674637 eV
  | Free-atom electrostatic energy:         -35.26990431 Ha        -959.74292751 eV
  | Hartree energy correction     :          -1.80727141 Ha         -49.17835711 eV
  | Entropy correction            :           0.00000000 Ha           0.00000000 eV
  | ---------------------------
  | Total energy                  :         -76.32019286 Ha       -2076.77811307 eV
  | Total energy, T -> 0          :         -76.32019286 Ha       -2076.77811307 eV  <-- do not rely on this value for anything but (periodic) metals
  | Electronic free energy        :         -76.32019286 Ha       -2076.77811307 eV

  Derived energy quantities:
  | Kinetic energy                :          76.45564015 Ha        2080.46382143 eV
  | Electrostatic energy          :        -143.49975980 Ha       -3904.82713971 eV
  | Energy correction for multipole
  | error in Hartree potential    :          -0.00086777 Ha          -0.02361322 eV
  | Sum of eigenvalues per atom                           :        -380.04292668 eV
  | Total energy (T->0) per atom                          :        -692.25937102 eV  <-- do not rely on this value for anything but (periodic) metals
  | Electronic free energy per atom                       :        -692.25937102 eV
  Evaluating new KS density using the density matrix
  Evaluating density matrix
  Finished density matrix calculation
  | Time :     0.000 s
  Time summed over all CPUs for getting density from density matrix: real work        1.987 s, elapsed        2.280 s
  Integration grid: deviation in total charge (<rho> - N_e) =  -7.105427E-15

  Self-consistency convergence accuracy:
  | Change of charge density      :  0.1250E+00
  | Change of unmixed KS density  :  0.6901E-01
  | Change of sum of eigenvalues  :  0.1335E+02 eV
  | Change of total energy        :  0.3217E+00 eV


------------------------------------------------------------
  End self-consistency iteration #     4       :  max(cpu_time)    wall_clock(cpu1)
  | Time for this iteration                     :        0.520 s           0.517 s
  | Charge density update                       :        0.148 s           0.146 s
  | Density mixing & preconditioning            :        0.076 s           0.074 s
  | Hartree multipole update                    :        0.004 s           0.003 s
[...]
  0.000000000000000E+000  0.000000000000000E+000  0.000000000000000E+000
 FOU  0.000000000000000E+000  0.000000000000000E+000  0.000000000000000E+000
  0.000000000000000E+000  0.000000000000000E+000  0.000000000000000E+000
  0.000000000000000E+000  0.000000000000000E+000  0.000000000000000E+000
 FOU  0.000000000000000E+000  0.000000000000000E+000  0.000000000000000E+000
 FOU  9.846433517264350E-005 -8.258494718377521E-004 -1.312238051863961E-003
  1.962405228020693E-004 -1.088836009853342E-002 -1.043137127109822E-002
 -1.118914737815306E-005  3.926250049360026E-004  3.058540336231481E-004
  0.000000000000000E+000  0.000000000000000E+000  0.000000000000000E+000
  0.000000000000000E+000  0.000000000000000E+000  0.000000000000000E+000
 FOU  0.000000000000000E+000  0.000000000000000E+000  0.000000000000000E+000
  0.000000000000000E+000  0.000000000000000E+000  0.000000000000000E+000
  0.000000000000000E+000  0.000000000000000E+000  0.000000000000000E+000
  3.445082705027886E-005 -6.048635650733039E-005  1.812133948103075E-003
  0.000000000000000E+000  0.000000000000000E+000  0.000000000000000E+000
  0.000000000000000E+000  0.000000000000000E+000  0.000000000000000E+000
  0.000000000000000E+000  0.000000000000000E+000  0.000000000000000E+000
  5.563830926380322E-006 -8.131553539693782E-004 -3.658670827421404E-003
  0.000000000000000E+000  0.000000000000000E+000  0.000000000000000E+000
  End CPSCF iteration #     5                  :  max(cpu_time)    wall_clock(cpu1)
  | Time for this iteration                     :        1.336 s           1.333 s
  | first_order_DM                              :        0.004 s           0.003 s
  | first_order_density                         :        0.140 s           0.138 s
  | first_order_potential                       :        0.252 s           0.251 s
  | first_order_H                               :        0.936 s           0.935 s
  | Solution of Sternheimer eqns.               :        0.004 s           0.003 s
------------------------------------------------------------

--------------------- CPSCF ---------------------------------------
          Begin CP-self-consistency iteration #    6

  Date     :  20221003, Time     :  101301.144
------------------------------------------------------------

  CPSCF convergence accuracy:
  | Change of first_order_density_matrix     :  0.8986E-03
  Integrating first_order_rho: batch-based integration.
  Time summed over all CPUs for integration: real work        1.982 s, elapsed        2.534 s

  Evaluating partitioned Hartree potential by multipole expansion.
  | Original multipole sum: apparent total charge =   0.319156E-14
  | Sum of charges compensated after spline to logarithmic grids =   0.433754E-06
  | Analytical far-field extrapolation by fixed multipoles:
  | Hartree multipole sum: apparent total charge =   0.313621E-14
  Summing up the Hartree potential.
  Time summed over all CPUs for potential: real work        3.429 s, elapsed        3.527 s
  | RMS delta_rho error from multipole expansion :   0.205222E-01

  Integrating first-order-Hamiltonian matrix: batch-based integration.
  Time summed over all CPUs for integration: real work       13.462 s, elapsed       15.259 s
 FOH  2.539678724782543E-002 -2.156982488990949E-005  8.344465503248693E-006
  0.000000000000000E+000  6.913424937537873E-003  3.862436118232414E-003
  0.000000000000000E+000  0.000000000000000E+000  1.996034904819948E-002
 FOH  0.000000000000000E+000  0.000000000000000E+000  0.000000000000000E+000
  0.000000000000000E+000  0.000000000000000E+000  0.000000000000000E+000
  0.000000000000000E+000  0.000000000000000E+000  0.000000000000000E+000
 FOH  0.000000000000000E+000  0.000000000000000E+000  0.000000000000000E+000
  0.000000000000000E+000  0.000000000000000E+000  0.000000000000000E+000
  0.000000000000000E+000  0.000000000000000E+000  0.000000000000000E+000
 FOH  0.000000000000000E+000  0.000000000000000E+000  0.000000000000000E+000
 FOH -1.325863157092059E-005  1.063835953934036E-004  9.834660578390947E-006
  2.020743310349744E-005  1.000920722370340E-003  5.236116470349510E-005
  1.147290763996154E-004 -1.139744502952965E-003 -2.064646908351738E-004
 FOH -2.091092575871425E-003 -9.649703243817024E-005  7.491831402631578E-006
  8.953178735865285E-003  2.592834922392191E-004 -9.143075131442211E-004
  1.056870982464509E-002  8.071973413414453E-004  5.070131106609630E-005
  0.000000000000000E+000  0.000000000000000E+000  0.000000000000000E+000
 FOH  1.182678576489241E-002 -8.478391473327340E-004  5.111932331743501E-004
  0.000000000000000E+000  1.186522147227279E-002  2.963393890700625E-003
  0.000000000000000E+000  0.000000000000000E+000  1.225686556313979E-002
 FOH -1.446609443622562E-003  2.536151578516538E-003 -5.243984002002176E-004
 -8.054581255906060E-006 -1.543869638278244E-003  6.426927025580446E-002
  4.432725306445622E-003 -3.014926686004470E-003 -5.425664365650081E-002
 FOH  0.000000000000000E+000  0.000000000000000E+000  0.000000000000000E+000
 FOH  1.396255668426089E-002 -4.026285096730007E-003  4.435041728166017E-003
  0.000000000000000E+000  1.389778449409396E-002  2.911953835936720E-005
  0.000000000000000E+000  0.000000000000000E+000  6.812464437192016E-003
 FOH -1.065961938993370E-002 -9.206759819390452E-005  8.516070837007395E-004
 -4.772323352415244E-005  3.190666236157955E-003 -1.159256162583503E-004
  4.819457712288082E-005  3.225067248283890E-003 -7.943648016790384E-005
 FOH  0.000000000000000E+000  0.000000000000000E+000  0.000000000000000E+000
  0.000000000000000E+000  0.000000000000000E+000  0.000000000000000E+000
  0.000000000000000E+000  0.000000000000000E+000  0.000000000000000E+000
  0.000000000000000E+000  0.000000000000000E+000  0.000000000000000E+000
 FOH  0.000000000000000E+000  0.000000000000000E+000  0.000000000000000E+000
 FOH  3.984626080641727E-002 -1.039637438278503E-003 -1.151725119748131E-003
  0.000000000000000E+000  0.000000000000000E+000  0.000000000000000E+000
  0.000000000000000E+000  0.000000000000000E+000  0.000000000000000E+000
 FOH -1.449426070697027E-003 -1.591669995334208E-003  2.982142545143623E-002
  1.365183565361561E-002 -9.562990769716943E-003  1.967414597301413E-003
  1.423433619571308E-003  4.083922159397779E-004 -2.566722769068255E-002
  0.000000000000000E+000  0.000000000000000E+000  0.000000000000000E+000
 FOH -1.164086068556719E-002 -3.656088653006588E-004 -7.209492707514445E-003
  0.000000000000000E+000 -1.305487111522250E-002  1.796188957436738E-002
  0.000000000000000E+000  0.000000000000000E+000 -1.225575059349285E-002
  0.000000000000000E+000  0.000000000000000E+000  0.000000000000000E+000
  1.648548287265156E-003 -1.686896254609075E-004  2.679030943449636E-002
  1.638174501879415E-004  4.136762680377185E-004  1.275489211449135E-003
 FOU  8.462486826133691E-006  1.332932131457019E-004 -1.677652521480915E-005
  3.617920943473931E-005 -7.687732309558115E-005 -8.463284339234607E-005
  9.784105628361431E-005  1.832481586876650E-004  1.212973421413127E-004
 FOU  0.000000000000000E+000  0.000000000000000E+000  0.000000000000000E+000
  0.000000000000000E+000  0.000000000000000E+000  0.000000000000000E+000
  0.000000000000000E+000  0.000000000000000E+000  0.000000000000000E+000
 FOU  0.000000000000000E+000  0.000000000000000E+000  0.000000000000000E+000
  0.000000000000000E+000  0.000000000000000E+000  0.000000000000000E+000
  0.000000000000000E+000  0.000000000000000E+000  0.000000000000000E+000
 FOU -4.267844055505826E-004 -3.406504170997451E-005 -5.537027778369989E-006
  6.055429570578579E-002  5.735983717784364E-005  8.122188791750706E-004
  0.173509365017993      -1.821180457403119E-003  3.670112807599288E-003
 FOU  4.267843231343611E-004 -6.055422300070806E-002 -0.173508206029940     
  3.406510077925496E-005 -5.752565355150209E-005  1.821188796739799E-003
  5.536974601220828E-006 -8.122005919051242E-004 -3.670061923193570E-003
 FOU  0.000000000000000E+000  0.000000000000000E+000  0.000000000000000E+000
  0.000000000000000E+000  0.000000000000000E+000  0.000000000000000E+000
  0.000000000000000E+000  0.000000000000000E+000  0.000000000000000E+000
 FOU  0.000000000000000E+000  0.000000000000000E+000  0.000000000000000E+000
 FOU  0.000000000000000E+000  0.000000000000000E+000  0.000000000000000E+000
 FOU  9.861515260245032E-005 -8.245252909300283E-004 -1.308260545834522E-003
 FOU  0.000000000000000E+000  0.000000000000000E+000  0.000000000000000E+000
 FOU -9.861575323675319E-005 -1.963704677010243E-004  1.129165548574568E-005
  8.245807872849236E-004  1.089335370510643E-002 -3.938174973658745E-004
  1.308295027810669E-003  1.043477869687359E-002 -3.121427266731499E-004
 FOU  0.000000000000000E+000  0.000000000000000E+000  0.000000000000000E+000
  0.000000000000000E+000  0.000000000000000E+000  0.000000000000000E+000
  0.000000000000000E+000  0.000000000000000E+000  0.000000000000000E+000
 FOU -8.462566509229487E-006 -3.617532412421211E-005 -9.782396344037215E-005
 -1.332923695024422E-004  7.688133839655985E-005 -1.831937096393715E-004
  1.677753757293012E-005  8.463339263459939E-005 -1.212957668650829E-004
 FOU  0.000000000000000E+000  0.000000000000000E+000  0.000000000000000E+000
  0.000000000000000E+000  0.000000000000000E+000  0.000000000000000E+000
  0.000000000000000E+000  0.000000000000000E+000  0.000000000000000E+000
 FOU  0.000000000000000E+000  0.000000000000000E+000  0.000000000000000E+000
  0.000000000000000E+000  0.000000000000000E+000  0.000000000000000E+000
  0.000000000000000E+000  0.000000000000000E+000  0.000000000000000E+000
 FOU  0.000000000000000E+000  0.000000000000000E+000  0.000000000000000E+000
  0.000000000000000E+000  0.000000000000000E+000  0.000000000000000E+000
  0.000000000000000E+000  0.000000000000000E+000  0.000000000000000E+000
  1.963683902723726E-004 -1.089332628557267E-002 -1.043495650418792E-002
  0.000000000000000E+000  0.000000000000000E+000  0.000000000000000E+000
  0.000000000000000E+000  0.000000000000000E+000  0.000000000000000E+000
  0.000000000000000E+000  0.000000000000000E+000  0.000000000000000E+000
 -1.129164051563055E-005  3.937967281695416E-004  3.121414276974455E-004
  0.000000000000000E+000  0.000000000000000E+000  0.000000000000000E+000
  0.000000000000000E+000  0.000000000000000E+000  0.000000000000000E+000
  0.000000000000000E+000  0.000000000000000E+000  0.000000000000000E+000

  CP-self-consistency cycle converged.

  End CPSCF iteration #     6                  :  max(cpu_time)    wall_clock(cpu1)
  | Time for this iteration                     :        1.364 s           1.363 s
  | first_order_DM                              :        0.004 s           0.003 s
  | first_order_density                         :        0.160 s           0.159 s
  | first_order_potential                       :        0.240 s           0.238 s
  | first_order_H                               :        0.956 s           0.956 s
  | Solution of Sternheimer eqns.               :        0.004 s           0.002 s
------------------------------------------------------------
dP_dE (Bohr^3) at every cycle:--->
 (11.4238201277220,0.000000000000000E+000) (2.45930059300931,0.000000000000000E+000) (-0.225503497775247,0.000000000000000E+000)
 (2.45918970049746,0.000000000000000E+000) (10.1203761165047,0.000000000000000E+000) (0.126507223119137,0.000000000000000E+000)
 (-0.225524146325587,0.000000000000000E+000) (0.126350543385303,0.000000000000000E+000) (14.4834990695965,0.000000000000000E+000)
DFPT polarizability (Bohr^3)        xx        yy        zz        xy        xz        yz
  | Polarizability:--->                        11.423820128                   10.120376117                   14.483499070                    2.459300593                   -0.225503498                    0.126507223

DFPT for dielectric_constant:--->  # PARSE DFPT_dielectric_tensor
               1.170182384334024             0.036636574633801            -0.003359359872441
               0.036634922651201             1.150764780835823             0.001884597326042
              -0.003359667477033             0.001882263244239             1.215762886460561

                                               :  max(cpu_time)    wall_clock(cpu1)
  | Time for  dielectric calculation            :        0.000 s           0.001 s
===========================================================================

------------------------------------------------------------------------------
  Final output of selected total energy values:

  The following output summarizes some interesting total energy values
  at the end of a run (AFTER all relaxation, molecular dynamics, etc.).

  | Total energy of the DFT / Hartree-Fock s.c.f. calculation      :          -2076.746771473 eV
  | Final zero-broadening corrected energy (caution - metals only) :          -2076.746771473 eV
  | For reference only, the value of 1 Hartree used in FHI-aims is :             27.211384500 eV
  | For reference only, the overall average (free atom contribution
  | + realspace contribution) of the electrostatic potential after
  | s.c.f. convergence is                                          :             -1.108202773 eV

  Before relying on these values, please be sure to understand exactly which
  total energy value is referred to by a given number. Different objects may
  all carry the same name 'total energy'. Definitions:

  Total energy of the DFT / Hartree-Fock s.c.f. calculation:
  | Note that this energy does not include ANY quantities calculated after the
  | s.c.f. cycle, in particular not ANY RPA, MP2, etc. many-body perturbation terms.

  Final zero-broadening corrected energy:
  | For metallic systems only, a broadening of the occupation numbers at the Fermi
  | level can be extrapolated back to zero broadening by an electron-gas inspired
  | formula. For all systems that are not real metals, this value can be
  | meaningless and should be avoided.

------------------------------------------------------------------------------
  Methods described in the following list of references were used in this FHI-aims run.
  If you publish the results, please make sure to cite these reference if they apply.
  FHI-aims is an academic code, and for our developers (often, Ph.D. students
  and postdocs), scientific credit in the community is essential.
  Thank you for helping us!

  For any use of FHI-aims, please cite:

    Volker Blum, Ralf Gehrke, Felix Hanke, Paula Havu, Ville Havu,
    Xinguo Ren, Karsten Reuter, and Matthias Scheffler
    'Ab initio molecular simulations with numeric atom-centered orbitals'
    Computer Physics Communications 180, 2175-2196 (2009)
    http://doi.org/10.1016/j.cpc.2009.06.022


  The provided symmetry information was generated with SPGlib:

    Atsushi Togo, Yusuke Seto, Dimitar Pashov
    SPGlib 1.7.3 obtained from http://spglib.sourceforge.net
    Copyright (C) 2008 Atsushi Togo


  The DFPT (perturbation by an electric field) part of the code was used.
  Here is the corresponding reference:

    Honghui Shang, Nathaniel Raimbault, Mariana Rossi,
    Christian Carbogno, Patrick Rinke and Matthias Scheffler,
    'All-Electron, Real-Space Perturbation Theory for Homogeneous
    Electric Fields: Theory, Implementation, and Application within dft'
    New Journal of Physics, 20(7):073040, 2018


  The ELSI infrastructure was used in your run to solve the Kohn-Sham electronic structure.
  Please check out http://elsi-interchange.org to learn more.
  If scalability is important for your project, please acknowledge ELSI by citing:

    V. W-z. Yu, F. Corsetti, A. Garcia, W. P. Huhn, M. Jacquelin, W. Jia,
    B. Lange, L. Lin, J. Lu, W. Mi, A. Seifitokaldani, A. Vazquez-Mayagoitia,
    C. Yang, H. Yang, and V. Blum
    'ELSI: A unified software interface for Kohn-Sham electronic structure solvers'
    Computer Physics Communications 222, 267-285 (2018).
    http://doi.org/10.1016/j.cpc.2017.09.007


  For the real-space grid partitioning and parallelization used in this calculation, please cite:

    Ville Havu, Volker Blum, Paula Havu, and Matthias Scheffler,
    'Efficient O(N) integration for all-electron electronic structure calculation'
    'using numerically tabulated basis functions'
    Journal of Computational Physics 228, 8367-8379 (2009).
    http://doi.org/10.1016/j.jcp.2009.08.008

  Of course, there are many other important community references, e.g., those cited in the
  above references. Our list is limited to references that describe implementations in the
  FHI-aims code. The reason is purely practical (length of this list) - please credit others as well.

------------------------------------------------------------
          Leaving FHI-aims.
          Date     :  20221003, Time     :  101302.515

          Computational steps:
          | Number of self-consistency cycles          :           35
          | Number of SCF (re)initializations          :            1
          | Number of coupled perturbed self-consistency cycles          :            0
          | Number of CPSCF (re)initializations          :            0

          Detailed time accounting                     :  max(cpu_time)    wall_clock(cpu1)
          | Total time                                  :       35.832 s          35.903 s
          | Preparation time                            :        0.132 s           0.142 s
          | Boundary condition initalization            :        0.048 s           0.046 s
          | Grid partitioning                           :        0.032 s           0.031 s
          | Preloading free-atom quantities on grid     :        0.084 s           0.077 s
          | Free-atom superposition energy              :        0.012 s           0.011 s
          | Total time for integrations                 :        1.328 s           1.305 s
          | Total time for solution of K.-S. equations  :        0.168 s           0.151 s
          | Total time for density update               :        2.108 s           2.091 s
          | Total time for mixing & preconditioning     :        1.224 s           1.189 s
          | Total time for Hartree multipole update     :        0.060 s           0.050 s
          | Total time for Hartree multipole sum        :        3.128 s           3.107 s
          | Total time for total energy evaluation      :        0.068 s           0.020 s
          | Total time first_order_DM                   :        0.080 s           0.061 s
          | Total time first_order_density              :        2.960 s           2.923 s
          | Total time first_order_potential            :        4.752 s           4.715 s
          | Total time first_order_H                    :       18.812 s          18.784 s
          | Total time solving of Sternheimer equations :        0.080 s           0.054 s
          | Total time for dielectric constant          :        0.000 s           0.001 s
          | Total time momentum matrix                  :        0.000 s           0.000 s

          Partial memory accounting:
          | Residual value for overall tracked memory usage across tasks:     0.000000 MB (should be 0.000000 MB)
          | Peak values for overall tracked memory usage:
          |   Minimum:        9.277 MB (on task  5 after allocating DFPT_pulay_mixing::pulay_mix::alphas)
          |   Maximum:        9.281 MB (on task  0 after allocating DFPT_pulay_mixing::pulay_mix::alphas)
          |   Average:        9.278 MB
          | Largest tracked array allocation:
          |   Minimum:        3.327 MB (DFPT_pulay_mixing::initialize_pulay_mixing::X_in_diffs on task  0)
          |   Maximum:        3.327 MB (DFPT_pulay_mixing::initialize_pulay_mixing::X_in_diffs on task  0)
          |   Average:        3.327 MB
          Note:  These values currently only include a subset of arrays which are explicitly tracked.
          The "true" memory usage will be greater.

          Have a nice day.
------------------------------------------------------------
