------------------------------------------------------------
          Invoking FHI-aims ...

          When using FHI-aims, please cite the following reference:

            Volker Blum, Ralf Gehrke, Felix Hanke, Paula Havu,
            Ville Havu, Xinguo Ren, Karsten Reuter, and Matthias Scheffler,
            'Ab Initio Molecular Simulations with Numeric Atom-Centered Orbitals',
            Computer Physics Communications 180, 2175-2196 (2009)

          In addition, many other developments in FHI-aims are likely important for
          your particular application. A partial list of references is given at the end of
          this file. Thank you for giving credit to the authors of these developments.

          For any questions about FHI-aims, please visit our slack channel at

            https://fhi-aims.slack.com

          and our main development and support site at

            https://aims-git.rz-berlin.mpg.de .

          The latter site, in particular, has a wiki to collect information, as well
          as an issue tracker to log discussions, suggest improvements, and report issues
          or bugs. https://aims-git.rz-berlin.mpg.de is also the main development site
          of the project and all new and updated code versions can be obtained there.
          Please send an email to aims-coordinators@fhi-berlin.mpg.de and we will add
          you to these sites. They are for you and everyone is welcome there.

------------------------------------------------------------



  Date     :  20220921, Time     :  123417.926
  Time zero on CPU 1             :   0.140000000000000E+00  s.
  Internal wall clock time zero  :           432995657.926  s.

  FHI-aims created a unique identifier for this run for later identification
  aims_uuid : 45A55E02-8B61-43ED-A8FD-862BD3C60583

  Build configuration of the current instance of FHI-aims
  -------------------------------------------------------
  FHI-aims version      : 220619
  Commit number         : 84ea59f81
  CMake host system     : Linux-4.9.0-16-amd64
  CMake version         : 3.17.3
  Fortran compiler      : /opt/easybuild/software/impi/2017.3.196-iccifort-2017.4.196-GCC-6.4.0-2.28/bin64/mpiifort (Intel) version 17.0.4.20170411
  Fortran compiler flags: -O3 -ip -fp-model precise
  C compiler            : /opt/easybuild/software/icc/2017.4.196-GCC-6.4.0-2.28/compilers_and_libraries_2017.4.196/linux/bin/intel64/icc (Intel) version 17.0.4.20170411
  C compiler flags      : -O3 -ip -fp-model precise -std=gnu99
  Using MPI
  Using ScaLAPACK
  Using LibXC
  Using i-PI
  Using RLSY
  Linking against: /opt/easybuild/software/imkl/2017.3.196-iimpi-2017b/mkl/lib/intel64/libmkl_intel_lp64.so
                   /opt/easybuild/software/imkl/2017.3.196-iimpi-2017b/mkl/lib/intel64/libmkl_sequential.so
                   /opt/easybuild/software/imkl/2017.3.196-iimpi-2017b/mkl/lib/intel64/libmkl_core.so
                   /opt/easybuild/software/imkl/2017.3.196-iimpi-2017b/mkl/lib/intel64/libmkl_blacs_intelmpi_lp64.so
                   /opt/easybuild/software/imkl/2017.3.196-iimpi-2017b/mkl/lib/intel64/libmkl_scalapack_lp64.so

  Using        1 parallel tasks.
  Task        0 on host mpsd-hpc-ibm-059 reporting.

  Performing system and environment tests:
  | Environment variable OMP_NUM_THREADS correctly set to 1.
  | Checking for ScaLAPACK...
  | Testing pdtran()...
  | All pdtran() tests passed.

  Obtaining array dimensions for all initial allocations:
  
  -----------------------------------------------------------------------
  Parsing control.in (first pass over file, find array dimensions only).
  The contents of control.in will be repeated verbatim below
  unless switched off by setting 'verbatim_writeout .false.' .
  in the first line of control.in .
  -----------------------------------------------------------------------
  
  #########################################################################################
  #
  #  Volker Blum, 2017 : Test run input file control.in for simple H2O
  #
  #########################################################################################
  #
  #  Physical model
  #
    xc                 pbe
    spin               none
    relativistic       none
    charge             0.
  
    ri_density_restart         write
    ri_rho1 write
    ri_full_output .True.
    DFPT dielectric
    sc_accuracy_rho    1d-6
  #  use_calculate_fock_matrix_old .false.
  #  output cube total_density
    k_grid 1 1 1
    wave_threshold 1e-8
  
  # prodbas_threshold 1e-2
  #
  #  Relaxation
  #
  #  relax_geometry   bfgs 1.e-2
  #
  
  ################################################################################
  
  ################################################################################
  #
  #  FHI-aims code project
  #  VB, Fritz-Haber Institut, 2009
  #
  #  Suggested "light" defaults for O atom (to be pasted into control.in file)
  #  Be sure to double-check any results obtained with these settings for post-processing,
  #  e.g., with the "tight" defaults and larger basis sets.
  #
  ################################################################################
    species        O
  #     global species definitions
      nucleus             8
      mass                15.9994
  #
      l_hartree           6
  #
      cut_pot             4.0  2.0  1.0
      basis_dep_cutoff    1e-4
  #
      radial_base         36 7.0
      radial_multiplier   2
       angular_grids specified
        division   0.2659   50
        division   0.4451  110
        division   0.6052  194
        division   0.7543  302
        division   0.8014  434
  #      division   0.8507  590
  #      division   0.8762  770
  #      division   0.9023  974
  #      division   1.2339 1202
  #      outer_grid 974
        outer_grid 434
  ################################################################################
  #
  #  Definition of "minimal" basis
  #
  ################################################################################
  #     valence basis states
      valence      2  s   2.
      valence      2  p   4.
  #     ion occupancy
      ion_occ      2  s   1.
      ion_occ      2  p   3.
  ################################################################################
  #
  #  Suggested additional basis functions. For production calculations,
  #  uncomment them one after another (the most important basis functions are
  #  listed first).
  #
  #
  ################################################################################
  #  "First tier" - improvements: -699.05 meV to -159.38 meV
       hydro 2 p 1.8
       hydro 3 d 7.6
       hydro 3 s 6.4
  #  "Second tier" - improvements: -49.91 meV to -5.39 meV
       hydro 4 f 11.6
       hydro 3 p 6.2
       hydro 3 d 5.6
       hydro 5 g 17.6
       hydro 1 s 0.75
  #  "Third tier" - improvements: -2.83 meV to -0.50 meV
  #     ionic 2 p auto
  #     hydro 4 f 10.8
  #     hydro 4 d 4.7
  #     hydro 2 s 6.8
  #  "Fourth tier" - improvements: -0.40 meV to -0.12 meV
  #     hydro 3 p 5
  #     hydro 3 s 3.3
  #     hydro 5 g 15.6
  #     hydro 4 f 17.6
  #     hydro 4 d 14
  # Further basis functions - -0.08 meV and below
  #     hydro 3 s 2.1
  #     hydro 4 d 11.6
  #     hydro 3 p 16
  #     hydro 2 s 17.2
  ################################################################################
  #
  #  FHI-aims code project
  #  VB, Fritz-Haber Institut, 2009
  #
  #  Suggested "light" defaults for H atom (to be pasted into control.in file)
  #  Be sure to double-check any results obtained with these settings for post-processing,
  #  e.g., with the "tight" defaults and larger basis sets.
  #
  ################################################################################
    species        H
  #     global species definitions
      nucleus             1
      mass                1.00794
  #
      l_hartree           6
  #
      cut_pot             4.0  2.0  1.0
      basis_dep_cutoff    1e-4
  #
      radial_base         24 7.0
      radial_multiplier   2
      angular_grids       specified
        division   0.2421   50
        division   0.3822  110
        division   0.4799  194
        division   0.5341  302
        division   0.5626  434
  #      division   0.5922  590
  #      division   0.6542  770
  #      division   0.6868 1202
  #      outer_grid  770
        outer_grid  434
  ################################################################################
  #
  #  Definition of "minimal" basis
  #
  ################################################################################
  #     valence basis states
      valence      1  s   1.
  #     ion occupancy
      ion_occ      1  s   0.5
  ################################################################################
  #
  #  Suggested additional basis functions. For production calculations,
  #  uncomment them one after another (the most important basis functions are
  #  listed first).
  #
  #  Basis constructed for dimers: 0.5 A, 0.7 A, 1.0 A, 1.5 A, 2.5 A
  #
  ################################################################################
  #  "First tier" - improvements: -1014.90 meV to -62.69 meV
       hydro 2 s 2.1
       hydro 2 p 3.5
  #  "Second tier" - improvements: -12.89 meV to -1.83 meV
      hydro 1 s 0.85
      hydro 2 p 3.7
      hydro 2 s 1.2
      hydro 3 d 7
  #  "Third tier" - improvements: -0.25 meV to -0.12 meV
  #    hydro 4 f 11.2
  #    hydro 3 p 4.8
  #    hydro 4 d 9
  #    hydro 3 s 3.2
  #
  
  
  -----------------------------------------------------------------------
  Completed first pass over input file control.in .
  -----------------------------------------------------------------------
  
  
  -----------------------------------------------------------------------
  Parsing geometry.in (first pass over file, find array dimensions only).
  The contents of geometry.in will be repeated verbatim below
  unless switched off by setting 'verbatim_writeout .false.' .
  in the first line of geometry.in .
  -----------------------------------------------------------------------
  
  #=======================================================
  # FHI-aims file: qmdata/data/geoms/502.in
  # Created using the Atomic Simulation Environment (ASE)
  # Wed Sep 21 12:30:23 2022
  #=======================================================
  lattice_vector 5.0000000000000000 0.0000000000000000 0.0000000000000000
  lattice_vector 0.0000000000000000 5.0000000000000000 0.0000000000000000
  lattice_vector 0.0000000000000000 0.0000000000000000 5.0000000000000000
  atom 0.0759766700000000 0.0027494000000000 0.0042386500000000 O
  atom -0.6179994200000000 -0.7558898200000000 -0.0344774800000000 H
  atom -0.5879040400000000 0.7122512400000000 -0.0327984900000000 H
  
  -----------------------------------------------------------------------
  Completed first pass over input file geometry.in .
  -----------------------------------------------------------------------
  

  Basic array size parameters:
  | Number of species                 :        2
  | Number of atoms                   :        3
  | Number of lattice vectors         :        3
  | Max. basis fn. angular momentum   :        4
  | Max. atomic/ionic basis occupied n:        2
  | Max. number of basis fn. types    :        2
  | Max. radial fns per species/type  :        8
  | Max. logarithmic grid size        :     1301
  | Max. radial integration grid size :       73
  | Max. angular integration grid size:      434
  | Max. angular grid division number :        8
  | Radial grid for Hartree potential :     1301
  | Number of spin channels           :        1

------------------------------------------------------------
          Reading file control.in.
------------------------------------------------------------
  XC: Using PBE gradient-corrected functionals.
  Spin treatment: No spin polarisation.
  Non-relativistic treatment of kinetic energy.
  Charge =   0.000000E+00: Neutral system requested explicitly.
  DFPT calculation will begin after the DFT/HF calculation.
  Convergence accuracy of self-consistent charge density:  0.1000E-05
  Found k-point grid:         1         1         1
  Threshold value for wave function integration:  0.1000E-07
 
  Reading configuration options for species O                   .
  | Found nuclear charge :   8.0000
  | Found atomic mass :    15.9994000000000      amu
  | Found l_max for Hartree potential  :   6
  | Found cutoff potl. onset [A], width [A], scale factor :    4.00000    2.00000    1.00000
  | Threshold for basis-dependent cutoff potential is   0.100000E-03
  | Found data for basic radial integration grid :    36 points, outermost radius =    7.000 A
  | Found multiplier for basic radial grid :   2
  | Found angular grid specification: user-specified.
  | Specified grid contains     6 separate shells.
  | Check grid settings after all constraints further below.
  | Found free-atom valence shell :  2 s   2.000
  | Found free-atom valence shell :  2 p   4.000
  | No ionic wave fns used. Skipping ion_occ.
  | No ionic wave fns used. Skipping ion_occ.
  | Found hydrogenic basis function :  2 p   1.800
  | Found hydrogenic basis function :  3 d   7.600
  | Found hydrogenic basis function :  3 s   6.400
  | Found hydrogenic basis function :  4 f  11.600
  | Found hydrogenic basis function :  3 p   6.200
  | Found hydrogenic basis function :  3 d   5.600
  | Found hydrogenic basis function :  5 g  17.600
  | Found hydrogenic basis function :  1 s   0.750
  Species O                   : Missing cutoff potential type.
  Defaulting to exp(1/x)/(1-x)^2 type cutoff potential.
  Species O : No 'logarithmic' tag. Using default grid for free atom:
  | Default logarithmic grid data [bohr] : 0.1000E-03 0.1000E+03 0.1012E+01
  Species O : On-site basis accuracy parameter (for Gram-Schmidt orthonormalisation) not specified.
  Using default value basis_acc =  0.1000000E-03.
  Species O                   : Using default innermost maximum threshold i_radial=  2 for radial functions.
  Species O                   : Default cutoff onset for free atom density etc. : 0.40000000E+01 AA.
  Species O                   : Basic radial grid will be enhanced according to radial_multiplier =   2, to contain    73 grid points.
 
  Reading configuration options for species H                   .
  | Found nuclear charge :   1.0000
  | Found atomic mass :    1.00794000000000      amu
  | Found l_max for Hartree potential  :   6
  | Found cutoff potl. onset [A], width [A], scale factor :    4.00000    2.00000    1.00000
  | Threshold for basis-dependent cutoff potential is   0.100000E-03
  | Found data for basic radial integration grid :    24 points, outermost radius =    7.000 A
  | Found multiplier for basic radial grid :   2
  | Found angular grid specification: user-specified.
  | Specified grid contains     6 separate shells.
  | Check grid settings after all constraints further below.
  | Found free-atom valence shell :  1 s   1.000
  | No ionic wave fns used. Skipping ion_occ.
  | Found hydrogenic basis function :  2 s   2.100
  | Found hydrogenic basis function :  2 p   3.500
  | Found hydrogenic basis function :  1 s   0.850
  | Found hydrogenic basis function :  2 p   3.700
  | Found hydrogenic basis function :  2 s   1.200
  | Found hydrogenic basis function :  3 d   7.000
  Species H                   : Missing cutoff potential type.
  Defaulting to exp(1/x)/(1-x)^2 type cutoff potential.
  Species H : No 'logarithmic' tag. Using default grid for free atom:
  | Default logarithmic grid data [bohr] : 0.1000E-03 0.1000E+03 0.1012E+01
  Species H : On-site basis accuracy parameter (for Gram-Schmidt orthonormalisation) not specified.
  Using default value basis_acc =  0.1000000E-03.
  Species H                   : Using default innermost maximum threshold i_radial=  2 for radial functions.
  Species H                   : Default cutoff onset for free atom density etc. : 0.40000000E+01 AA.
  Species H                   : Basic radial grid will be enhanced according to radial_multiplier =   2, to contain    49 grid points.
 
  Finished reading input file 'control.in'.
 
------------------------------------------------------------


------------------------------------------------------------
          Reading geometry description geometry.in.
------------------------------------------------------------
  | The smallest distance between any two atoms is         0.97236938 AA.
  | The first atom of this pair is atom number                      1 .
  | The second atom of this pair is atom number                     3 .
  | Wigner-Seitz cell of the first atom image           0     0     0 .
  | (The Wigner-Seitz cell of the second atom is 0 0 0  by definition.)

  Symmetry information by spglib:
  | Precision set to  0.1E-04
  | Number of Operations  : 1
  | Space group           : 1
  | International         : P1
  | Schoenflies           : C1^1
  Input structure read successfully.
  The structure contains        3 atoms,  and a total of         10.000 electrons.

  Input geometry:
  | Unit cell:
  |        5.00000000        0.00000000        0.00000000
  |        0.00000000        5.00000000        0.00000000
  |        0.00000000        0.00000000        5.00000000
  | Atomic structure:
  |       Atom                x [A]            y [A]            z [A]
  |    1: Species O             0.07597667        0.00274940        0.00423865
  |    2: Species H            -0.61799942       -0.75588982       -0.03447748
  |    3: Species H            -0.58790404        0.71225124       -0.03279849

  Lattice parameters for 3D lattice (in Angstroms) :     5.000000    5.000000    5.000000
  Angle(s) between unit vectors (in degrees)       :    90.000000   90.000000   90.000000


  Quantities derived from the lattice vectors (in Angstrom^-1):
  | Reciprocal lattice vector 1:  1.256637  0.000000  0.000000
  | Reciprocal lattice vector 2:  0.000000  1.256637  0.000000
  | Reciprocal lattice vector 3:  0.000000  0.000000  1.256637
  | Unit cell volume                               :   0.125000E+03  Angstrom^3

  Fractional coordinates:
                         L1                L2                L3
       atom_frac         0.01519533        0.00054988        0.00084773  O
       atom_frac        -0.12359988       -0.15117796       -0.00689550  H
       atom_frac        -0.11758081        0.14245025       -0.00655970  H

 
  Finished reading input file 'geometry.in'.
 

 
  Consistency checks for stacksize environment parameter are next.
 
  | Maximum stacksize for task 0: unlimited
  | Current stacksize for task 0: unlimited
 
  Consistency checks for the contents of control.in are next.
 
  MPI_IN_PLACE appears to work with this MPI implementation.
  | Keeping use_mpi_in_place .true. (see manual).
  Explicit treatment of the Coulomb operator is needed, but the RI method is not specified.
  Coulomb operator: Defaulting to 'LVL fast' resolution of identity - RI_type = LVL_fast
  Species O: Using default value for prodbas_acc =   1.000000E-04.
  Species O: Using default value max_l_prodbas =    20.
  Species H: Using default value for prodbas_acc =   1.000000E-04.
  Species H: Using default value max_l_prodbas =    20.
  Target number of points in a grid batch is not set. Defaulting to  100
  Method for grid partitioning is not set. Defaulting to parallel hash+maxmin partitioning.
  Batch size limit is not set. Defaulting to    200
  By default, will store active basis functions for each batch.
  If in need of memory, prune_basis_once .false. can be used to disable this option.
  communication_type for Hartree potential was not specified.
  Defaulting to calc_hartree .
  Defaulting to Pulay charge density mixer.
  Pulay mixer: Number of relevant iterations not set.
  Defaulting to    8 iterations.
  Pulay mixer: Number of initial linear mixing iterations not set.
  Defaulting to    0 iterations.
  Work space size for distributed Hartree potential not set.
  Defaulting to   0.200000E+03 MB.
  Mixing parameter for charge density mixing has not been set.
  Using default: charge_mix_param =     0.0500.
  The mixing parameter will be adjusted in iteration number     2 of the first full s.c.f. cycle only.
  Algorithm-dependent basis array size parameters:
  | n_max_pulay                         :        8
  Maximum number of self-consistency iterations not provided.
  Presetting  1000 iterations.
  Presetting      1001 iterations before the initial mixing cycle
  is restarted anyway using the sc_init_iter criterion / keyword.
  Presetting a factor      1.000 between actual scf density residual
  and density convergence criterion sc_accuracy_rho below which sc_init_iter
  takes no effect.
  Calculation of forces was not defined in control.in. No forces will be calculated.
  Geometry relaxation not requested: no relaxation will be performed.
  No accuracy limit for integral partition fn. given. Defaulting to  0.1000E-14.
  No occupation type (smearing scheme) given. Defaulting to Gaussian broadening, width =  0.1000E-01 eV.
  The width will be adjusted in iteration number     2 of the first full s.c.f. cycle only.
  S.C.F. convergence parameters will be adjusted in iteration number     2 of the first full s.c.f. cycle only.
  No accuracy for occupation numbers given. Defaulting to  0.1000E-12.
  No threshold value for occupation numbers given. Defaulting to  0.0000E+00.
  No accuracy for fermi level given. Defaulting to  0.1000E-19.
  Maximum # of iterations to find E_F not set. Defaulting to  200.
  Preferred method for the eigenvalue solver ('KS_method') not specified in 'control.in'.
  Defaulting to serial version LAPACK (via ELSI).
  Will not use alltoall communication since running on < 1024 CPUs.
  Threshold for basis singularities not set.
  Default threshold for basis singularities:  0.1000E-04
  partition_type (choice of integration weights) for integrals was not specified.
  | Using a version of the partition function of Stratmann and coworkers ('stratmann_sparse').
  | At each grid point, the set of atoms used to build the partition table is smoothly restricted to
  | only those atoms whose free-atom density would be non-zero at that grid point.
  Partitioning for Hartree potential was not defined. Using partition_type for integrals.
  | Adjusted default value of keyword multip_moments_threshold to:       0.10000000E-11
  | This value may affect high angular momentum components of the Hartree potential in periodic systems.
  Angular momentum expansion for Kerker preconditioner not set explicitly.
  | Using default value of   0
  No explicit requirement for turning off preconditioner.
  | By default, it will be turned off when the charge convergence reaches
  | sc_accuracy_rho  =   0.100000E-05
  No special mixing parameter while Kerker preconditioner is on.
  Using default: charge_mix_param =     0.0500.
  Threshold for auxiliary basis singularities not set.
  Default threshold for auxiliary basis singularities:  0.1000E-04
  No q(lm)/r^(l+1) cutoff set for long-range Hartree potential.
  | Using default value of  0.100000E-09 .
  | Verify using the multipole_threshold keyword.
  Defaulting to new monopole extrapolation.
  Density update method: automatic selection selected.
  Using density matrix based charge density update.
  Using density matrix based charge density update.
  Using packed matrix style: index .
  Defaulting to use time-reversal symmetry for k-point grid.
  Charge integration errors on the 3D integration grid will be compensated
  by explicit normalization and distribution of residual charges.
  Use the "compensate_multipole_errors" flag to change this behaviour.
  Default to 1D ("use_logsbt") integrations for auxiliary 2-center integrals.
  Default onset of logarithmic r-grid for SBT is -38.000000000000
  Default onset of logarithmic k-grid for SBT is -25.000000000000
  Default range of logarithmic r- and k-grid for SBT is  45.000000000000
  Default number of logarithmic r- and k-grid for SBT is   4096
  Set 'collect_eigenvectors' to be '.true.' for all serial calculations. This is mandatory.
  Set 'collect_eigenvectors' to be '.true.' for KS_method lapack_fast and serial.
 
  Consistency checks for the contents of geometry.in are next.
 

  Range separation radius for Ewald summation (hartree_convergence_parameter):      5.00000000 bohr.
  Number of empty states per atom not set in control.in .
  | Since you are using a method that relies on the unoccupied spectrum
  | (MP2,GW,RPA et al.), will use the full Hamiltonian size (see below)
  | as the max. possible number of states (occupied plus empty).

  Structure-dependent array size parameters: 
  | Maximum number of distinct radial functions  :       18
  | Maximum number of basis functions            :       69
  | Number of Kohn-Sham states (occupied + empty):       69
------------------------------------------------------------

------------------------------------------------------------
          Preparing all fixed parts of the calculation.
------------------------------------------------------------
  Determining machine precision:
    2.225073858507201E-308
  Setting up grids for atomic and cluster calculations.

  Creating wave function, potential, and density for free atoms.
  Runtime choices for atomic solver:
  | atomic solver xc        : PBE
  | compute density gradient: 1
  | compute kinetic density : F

  Species: O

  List of occupied orbitals and eigenvalues:
    n    l              occ      energy [Ha]    energy [eV]
    1    0           2.0000       -18.898576      -514.2564
    2    0           2.0000        -0.878795       -23.9132
    2    1           4.0000        -0.332075        -9.0362


  Species: H

  List of occupied orbitals and eigenvalues:
    n    l              occ      energy [Ha]    energy [eV]
    1    0           1.0000        -0.238382        -6.4867


  Adding cutoff potential to free-atom effective potential.
  Creating fixed part of basis set: Ionic, confined, hydrogenic.
 
  O                    hydrogenic:
 
  List of hydrogenic basis orbitals: 
    n    l      effective z      eigenvalue [eV]  inner max. [A]     outer max. [A]     outer radius [A]   
    2    1         1.800000       -11.0118           1.178562           1.178562           5.567066
    3    2         7.600000       -87.3182           0.624125           0.624125           3.764702
    3    0         6.400000       -61.9209           0.061167           1.081902           4.522403
    4    3        11.600000      -114.4238           0.731631           0.731631           3.811008
    3    1         6.200000       -58.1113           0.255680           1.030270           4.522403
    3    2         5.600000       -47.4081           0.847233           0.847233           4.578029
    5    4        17.600000      -168.5799           0.749740           0.749740           3.629133
    1    0         0.750000        -7.6499           0.705284           0.705284           5.567066
 
 
  H                    hydrogenic:
 
  List of hydrogenic basis orbitals: 
    n    l      effective z      eigenvalue [eV]  inner max. [A]     outer max. [A]     outer radius [A]   
    2    0         2.100000       -14.9965           0.193243           1.317208           5.573719
    2    1         3.500000       -41.6672           0.602369           0.602369           4.259334
    1    0         0.850000        -9.8292           0.624871           0.624871           5.573719
    2    1         3.700000       -46.5653           0.573622           0.573622           4.105953
    2    0         1.200000        -4.5995           0.334980           2.228188           5.642276
    3    2         7.000000       -74.0753           0.680699           0.680699           3.958095
 
  Creating atomic-like basis functions for current effective potential.

  Species O                   :

  List of atomic basis orbitals and eigenvalues:
    n    l      energy [Ha]    energy [eV]    outer radius [A]
    1    0       -18.898576      -514.2564       1.807907
    2    0        -0.878795       -23.9132       5.366593
    2    1        -0.332075        -9.0362       5.499423


  Species H                   :

  List of atomic basis orbitals and eigenvalues:
    n    l      energy [Ha]    energy [eV]    outer radius [A]
    1    0        -0.238382        -6.4867       5.573719

  Assembling full basis from fixed parts.
  | Species O :   atomic orbital   1 s accepted.
  | Species O :    hydro orbital   3 s accepted.
  | Species O :   atomic orbital   2 s accepted.
  | Species O :    hydro orbital   1 s accepted.
  | Species O :    hydro orbital   3 p accepted.
  | Species O :   atomic orbital   2 p accepted.
  | Species O :    hydro orbital   2 p accepted.
  | Species O :    hydro orbital   3 d accepted.
  | Species O :    hydro orbital   3 d accepted.
  | Species O :    hydro orbital   4 f accepted.
  | Species O :    hydro orbital   5 g accepted.
  | Species H :   atomic orbital   1 s accepted.
  | Species H :    hydro orbital   2 s accepted.
  | Species H :    hydro orbital   1 s accepted.
  | Species H :    hydro orbital   2 s accepted.
  | Species H :    hydro orbital   2 p accepted.
  | Species H :    hydro orbital   2 p accepted.
  | Species H :    hydro orbital   3 d accepted.
 
  Basis size parameters after reduction:
  | Total number of radial functions:       18
  | Total number of basis functions :       69
 
  Per-task memory consumption for arrays in subroutine allocate_ext:
  |           4.499020MB.
  Testing on-site integration grid accuracy.
  |  Species  Function  <phi|h_atom|phi> (log., in eV)  <phi|h_atom|phi> (rad., in eV)
           1        1               -514.2564144315               -514.2564099626
           1        2                 15.1726678541                 15.1726530877
           1        3                -21.5447785304                -21.5447874973
           1        4                 14.4944558459                 14.4944698284
           1        5                 20.8882174564                 20.8882178906
           1        6                 -2.4850315909                 -2.4850322289
           1        7                 13.8600193195                 13.8599826966
           1        8                 45.8243383616                 45.8243383675
           1        9                 52.1840606465                 52.1840622440
           1       10                 85.4074185510                 85.4074185819
           1       11                142.0983717302                142.0983717339
           2       12                 -6.4869821809                 -6.4870742227
           2       13                 13.5044133542                 13.5041049177
           2       14                 32.7854418792                 32.7779770519
           2       15                 33.7995553101                 33.7152624900 ***
           2       16                 28.8558651799                 28.8558652046
           2       17                 59.6361831893                 59.6362535845
           2       18                 60.2733718049                 60.2733715484
 * Note: Onsite integrals marked "***" above are less accurate than
 * onsite_accuracy_threshold =    0.03000 eV. Usually, this is harmless.
 * When in doubt, tighten the "radial" and/or "radial_multiplier" flags to check.

  Preparing densities etc. for the partition functions (integrals / Hartree potential).

  Preparations completed.
  max(cpu_time)          :      0.132 s.
  Wall clock time (cpu1) :      0.138 s.
------------------------------------------------------------

  Initializing index lists of integration centers etc. from given atomic structure:
  Mapping all atomic coordinates to central unit cell.

  Initializing the k-points
  Using symmetry for reducing the k-points
  | k-points reduced from:        1 to        1
  | Number of k-points                             :         1
  | Consuming          0 KiB for k_phase_exx.
  The eigenvectors in the calculations are REAL.
  | K-points in task   0:         1
  | Number of basis functions in the Hamiltonian integrals :      1557
  | Number of basis functions in a single unit cell        :        69
  | Number of centers in hartree potential         :       661
  | Number of centers in hartree multipole         :       243
  | Number of centers in electron density summation:       191
  | Number of centers in basis integrals           :       207
  | Number of centers in integrals                 :        81
  | Number of centers in hamiltonian               :       191
  | Consuming          1 KiB for k_phase.
  | Number of super-cells (origin) [n_cells]                     :        1331
  | Number of super-cells (after PM_index) [n_cells]             :          74
  | Number of super-cells in hamiltonian [n_cells_in_hamiltonian]:          74
  | Size of matrix packed + index [n_hamiltonian_matrix_size] :       62486
  | Size of matrix packed + index (no_symmetry):      122974

------------------------------------------------------------
          Begin self-consistency loop: Initialization.

          Date     :  20220921, Time     :  123418.586
------------------------------------------------------------
  | Estimated reciprocal-space cutoff momentum G_max:         1.90186217 bohr^-1 .
  | Reciprocal lattice points for long-range Hartree potential:      92
  Partitioning the integration grid into batches with parallel hashing+maxmin method.
  | Number of batches:      511
  | Maximal batch size:     182
  | Minimal batch size:      89
  | Average batch size:      91.761
  | Standard deviation of batch sizes:       4.268

  Integration load balanced across     1 MPI tasks.
  Work distribution over tasks is as follows:
  Task     0 has      46890 integration points.
  Initializing partition tables, free-atom densities, potentials, etc. across the integration grid (initialize_grid_storage).
  | initialize_grid_storage: Actual outermost partition radius vs. multipole_radius_free
  | (-- VB: in principle, multipole_radius_free should be larger, hence this output)
  | Species        1: Confinement radius =              6.000000000000000 AA, multipole_radius_free =              6.064445521808699 AA.
  | Species        1: outer_partition_radius set to              6.064445521808699 AA .
  | Species        2: Confinement radius =              6.000000000000000 AA, multipole_radius_free =              6.071692442739658 AA.
  | Species        2: outer_partition_radius set to              6.071692442739658 AA .
  | The sparse table of interatomic distances needs        416.61 kbyte instead of       342.79 kbyte of memory.
  | Using the partition_type stratmann_smoother will reduce your memory usage.
  | Net number of integration points:    46890
  | of which are non-zero points    :    37505
  | Numerical average free-atom electrostatic potential    :     -1.29049433 eV
  Renormalizing the initial density to the exact electron count on the 3D integration grid.
  | Initial density: Formal number of electrons (from input files) :      10.0000000000
  | Integrated number of electrons on 3D grid     :      10.0000071783
  | Charge integration error                      :       0.0000071783
  | Normalization factor for density and gradient :       0.9999992822
  Renormalizing the free-atom superposition density to the exact electron count on the 3D integration grid.
  | Formal number of electrons (from input files) :      10.0000000000
  | Integrated number of electrons on 3D grid     :      10.0000071783
  | Charge integration error                      :       0.0000071783
  | Normalization factor for density and gradient :       0.9999992822
  Obtaining max. number of non-zero basis functions in each batch (get_n_compute_maxes).
  | Maximal number of non-zero basis functions:      414 in task     0
  Allocating        0.036 MB for KS_eigenvector
  Integrating Hamiltonian matrix: batch-based integration.
  Time summed over all CPUs for integration: real work        1.098 s, elapsed        1.098 s
  Integrating overlap matrix.
  Time summed over all CPUs for integration: real work        0.599 s, elapsed        0.599 s

  Updating Kohn-Sham eigenvalues and eigenvectors using ELSI and the (modified) LAPACK eigensolver.
  Singularity check in k-point 1, task 0 (analysis for other k-points/tasks may follow below):
  Overlap matrix is not singular
  | Lowest and highest eigenvalues :  0.2526E-03,  0.6953E+01
  Finished singularity check of overlap matrix
  | Time :     0.001 s
  Starting LAPACK eigensolver
  Finished Cholesky decomposition
  | Time :     0.000 s
  Finished transformation to standard eigenproblem
  | Time :     0.000 s
  Finished solving standard eigenproblem
  | Time :     0.001 s
  Finished back-transformation of eigenvectors
  | Time :     0.000 s

  Obtaining occupation numbers and electronic chemical potential using ELSI.
  | Note that, for insulating systems, the printed 'chemical potential' value is not uniquely defined.
  | It can be anywhere in the energy gap, as long as it correctly separates occupied and unoccupied states.
  | In systems with a gap, the physically relevant chemical potential is the VBM or HOMO.

  | Chemical potential (Fermi level):    -5.53249906 eV
  Writing Kohn-Sham eigenvalues.

  State    Occupation    Eigenvalue [Ha]    Eigenvalue [eV]
      1       2.00000         -18.994216         -516.85892
      2       2.00000          -1.082262          -29.44985
      3       2.00000          -0.590335          -16.06384
      4       2.00000          -0.514873          -14.01041
      5       2.00000          -0.428652          -11.66420
      6       0.00000          -0.116963           -3.18272
      7       0.00000           0.041019            1.11618
      8       0.00000           0.083446            2.27069
      9       0.00000           0.187514            5.10252
     10       0.00000           0.197177            5.36546
     11       0.00000           0.212995            5.79589
     12       0.00000           0.317896            8.65039
     13       0.00000           0.431340           11.73736
     14       0.00000           0.440355           11.98268
     15       0.00000           0.459106           12.49292
     16       0.00000           0.493701           13.43429
     17       0.00000           0.561780           15.28681
     18       0.00000           0.602548           16.39617
     19       0.00000           0.896418           24.39278
     20       0.00000           0.931014           25.33417
     21       0.00000           1.038146           28.24938
     22       0.00000           1.066690           29.02612
     23       0.00000           1.082035           29.44367
     24       0.00000           1.144018           31.13032
     25       0.00000           1.376508           37.45669
     26       0.00000           1.408400           38.32451
     27       0.00000           1.433380           39.00424
     28       0.00000           1.803288           49.06996
     29       0.00000           1.983719           53.97973
     30       0.00000           2.064042           56.16545
     31       0.00000           2.176158           59.21627
     32       0.00000           2.304255           62.70197
     33       0.00000           2.312025           62.91339
     34       0.00000           2.429085           66.09877
     35       0.00000           2.557716           69.59899
     36       0.00000           2.640105           71.84090
     37       0.00000           2.837604           77.21512
     38       0.00000           2.871003           78.12398
     39       0.00000           3.010631           81.92344
     40       0.00000           3.195006           86.94055
     41       0.00000           3.324895           90.47499
     42       0.00000           3.376992           91.89264
     43       0.00000           3.446145           93.77438
     44       0.00000           3.480172           94.70030
     45       0.00000           3.574330           97.26247
     46       0.00000           3.614732           98.36186
     47       0.00000           3.833832          104.32388
     48       0.00000           3.875287          105.45193
     49       0.00000           4.050190          110.21127
     50       0.00000           4.180755          113.76413
     51       0.00000           4.397377          119.65873
     52       0.00000           4.995878          135.94474
     53       0.00000           5.125093          139.46088
     54       0.00000           5.149471          140.12424
     55       0.00000           5.335758          145.19337
     56       0.00000           5.431747          147.80536
     57       0.00000           5.569478          151.55320
     58       0.00000           5.681826          154.61036
     59       0.00000           5.895917          160.43607
     60       0.00000           5.941790          161.68433
     61       0.00000           5.988268          162.94907
     62       0.00000           6.705852          182.47551
     63       0.00000           7.015564          190.90322
     64       0.00000           7.171325          195.14168
     65       0.00000           7.191232          195.68338
     66       0.00000           7.484169          203.65459
     67       0.00000           7.829275          213.04541
     68       0.00000           8.088670          220.10391
     69       0.00000           8.338003          226.88860

  Highest occupied state (VBM) at    -11.66420332 eV (relative to internal zero)
  | Occupation number:      2.00000000
  | K-point:       1 at    0.000000    0.000000    0.000000 (in units of recip. lattice)

  Lowest unoccupied state (CBM) at    -3.18271909 eV (relative to internal zero)
  | Occupation number:      0.00000000
  | K-point:       1 at    0.000000    0.000000    0.000000 (in units of recip. lattice)

  ESTIMATED overall HOMO-LUMO gap:      8.48148423 eV between HOMO at k-point 1 and LUMO at k-point 1
  The gap value is above 0.2 eV. Unless you are using a very sparse k-point grid,
  this system is most likely an insulator or a semiconductor.
  Calculating total energy contributions from superposition of free atom densities.

  Total energy components:
  | Sum of eigenvalues            :         -43.22067694 Ha       -1176.09445867 eV
  | XC energy correction          :          -9.00165701 Ha        -244.94754995 eV
  | XC potential correction       :          11.57354857 Ha         314.93228015 eV
  | Free-atom electrostatic energy:         -35.80138183 Ha        -974.20516656 eV
  | Hartree energy correction     :           0.00000000 Ha           0.00000000 eV
  | Entropy correction            :           0.00000000 Ha           0.00000000 eV
  | ---------------------------
  | Total energy                  :         -76.45016721 Ha       -2080.31489502 eV
  | Total energy, T -> 0          :         -76.45016721 Ha       -2080.31489502 eV  <-- do not rely on this value for anything but (periodic) metals
  | Electronic free energy        :         -76.45016721 Ha       -2080.31489502 eV

  Derived energy quantities:
  | Kinetic energy                :          75.51543169 Ha        2054.87944745 eV
  | Electrostatic energy          :        -142.96394189 Ha       -3890.24679252 eV
  | Energy correction for multipole
  | error in Hartree potential    :           0.00000000 Ha           0.00000000 eV
  | Sum of eigenvalues per atom                           :        -392.03148622 eV
  | Total energy (T->0) per atom                          :        -693.43829834 eV  <-- do not rely on this value for anything but (periodic) metals
  | Electronic free energy per atom                       :        -693.43829834 eV
  Initialize hartree_potential_storage
  Max. number of atoms included in rho_multipole:            3

  End scf initialization - timings             :  max(cpu_time)    wall_clock(cpu1)
  | Time for scf. initialization                :        3.096 s           3.149 s
  | Boundary condition initialization           :        0.064 s           0.066 s
  | Integration                                 :        1.660 s           1.699 s
  | Solution of K.-S. eqns.                     :        0.004 s           0.004 s
  | Grid partitioning                           :        0.188 s           0.191 s
  | Preloading free-atom quantities on grid     :        1.084 s           1.087 s
  | Free-atom superposition energy              :        0.160 s           0.163 s
  | Total energy evaluation                     :        0.000 s           0.001 s

  Partial memory accounting:
  | Current value for overall tracked memory usage:
  |   Minimum:        1.229 MB (on task 0)
  |   Maximum:        1.229 MB (on task 0)
  |   Average:        1.229 MB
  | Peak value for overall tracked memory usage:
  |   Minimum:        4.271 MB (on task 0 after allocating wave)
  |   Maximum:        4.271 MB (on task 0 after allocating wave)
  |   Average:        4.271 MB
  | Largest tracked array allocation so far:
  |   Minimum:        1.308 MB (hamiltonian_shell on task 0)
  |   Maximum:        1.308 MB (hamiltonian_shell on task 0)
  |   Average:        1.308 MB
  Note:  These values currently only include a subset of arrays which are explicitly tracked.
  The "true" memory usage will be greater.
------------------------------------------------------------
  Evaluating new KS density using the density matrix
  Evaluating density matrix
  Time summed over all CPUs for getting density from density matrix: real work        2.163 s, elapsed        2.163 s
  Integration grid: deviation in total charge (<rho> - N_e) =  -3.019807E-14

  Time for density update prior                :  max(cpu_time)    wall_clock(cpu1)
  | self-consistency iterative process          :        2.112 s           2.168 s

------------------------------------------------------------
          Begin self-consistency iteration #    1

  Date     :  20220921, Time     :  123423.905
------------------------------------------------------------
  Pulay mixing of updated and previous charge densities.
  Renormalizing the density to the exact electron count on the 3D integration grid.
  | Formal number of electrons (from input files) :      10.0000000000
  | Integrated number of electrons on 3D grid     :       9.9996538584
  | Charge integration error                      :      -0.0003461416
  | Normalization factor for density and gradient :       1.0000346154

  Evaluating partitioned Hartree potential by multipole expansion.
  | Original multipole sum: apparent total charge =  -0.100057E-12
  | Sum of charges compensated after spline to logarithmic grids =   0.896522E-07
  | Analytical far-field extrapolation by fixed multipoles:
  | Hartree multipole sum: apparent total charge =  -0.100065E-12
  Summing up the Hartree potential.
  Time summed over all CPUs for potential: real work        2.473 s, elapsed        2.473 s
  | RMS charge density error from multipole expansion :   0.110306E-03
  | Average real-space part of the electrostatic potential :      0.00911791 eV

  Integrating Hamiltonian matrix: batch-based integration.
  Time summed over all CPUs for integration: real work        1.134 s, elapsed        1.134 s

  Updating Kohn-Sham eigenvalues and eigenvectors using ELSI and the (modified) LAPACK eigensolver.
  Starting LAPACK eigensolver
  Finished Cholesky decomposition
  | Time :     0.000 s
  Finished transformation to standard eigenproblem
  | Time :     0.001 s
  Finished solving standard eigenproblem
  | Time :     0.001 s
  Finished back-transformation of eigenvectors
  | Time :     0.000 s

  Obtaining occupation numbers and electronic chemical potential using ELSI.
  | Note that, for insulating systems, the printed 'chemical potential' value is not uniquely defined.
  | It can be anywhere in the energy gap, as long as it correctly separates occupied and unoccupied states.
  | In systems with a gap, the physically relevant chemical potential is the VBM or HOMO.

  | Chemical potential (Fermi level):    -5.08741430 eV
  Writing Kohn-Sham eigenvalues.

  State    Occupation    Eigenvalue [Ha]    Eigenvalue [eV]
      1       2.00000         -18.965527         -516.07825
      2       2.00000          -1.068922          -29.08685
      3       2.00000          -0.578905          -15.75282
      4       2.00000          -0.501515          -13.64692
      5       2.00000          -0.414257          -11.27251
      6       0.00000          -0.115455           -3.14168
      7       0.00000           0.045015            1.22493
      8       0.00000           0.086352            2.34976
      9       0.00000           0.190633            5.18739
     10       0.00000           0.198652            5.40560
     11       0.00000           0.215396            5.86122
     12       0.00000           0.319706            8.69964
     13       0.00000           0.433980           11.80918
     14       0.00000           0.442930           12.05274
     15       0.00000           0.461818           12.56671
     16       0.00000           0.497015           13.52447
     17       0.00000           0.564565           15.36260
     18       0.00000           0.605427           16.47449
     19       0.00000           0.897784           24.42993
     20       0.00000           0.934278           25.42300
     21       0.00000           1.042103           28.35707
     22       0.00000           1.072444           29.18268
     23       0.00000           1.085383           29.53478
     24       0.00000           1.148920           31.26370
     25       0.00000           1.385427           37.69939
     26       0.00000           1.414462           38.48947
     27       0.00000           1.444092           39.29575
     28       0.00000           1.810079           49.25475
     29       0.00000           1.987773           54.09005
     30       0.00000           2.069912           56.32517
     31       0.00000           2.181325           59.35687
     32       0.00000           2.308604           62.82030
     33       0.00000           2.319756           63.12376
     34       0.00000           2.437551           66.32915
     35       0.00000           2.562728           69.73539
     36       0.00000           2.645133           71.97773
     37       0.00000           2.844861           77.41261
     38       0.00000           2.873842           78.20121
     39       0.00000           3.020814           82.20054
     40       0.00000           3.202262           87.13798
     41       0.00000           3.332280           90.67595
     42       0.00000           3.382496           92.04240
     43       0.00000           3.451578           93.92221
     44       0.00000           3.487615           94.90285
     45       0.00000           3.579631           97.40672
     46       0.00000           3.621748           98.55279
     47       0.00000           3.843675          104.59171
     48       0.00000           3.883339          105.67103
     49       0.00000           4.059899          110.47548
     50       0.00000           4.184984          113.87921
     51       0.00000           4.406686          119.91203
     52       0.00000           5.003638          136.15592
     53       0.00000           5.133536          139.69063
     54       0.00000           5.157061          140.33078
     55       0.00000           5.343893          145.41473
     56       0.00000           5.438626          147.99253
     57       0.00000           5.576708          151.74995
     58       0.00000           5.691172          154.86468
     59       0.00000           5.903590          160.64486
     60       0.00000           5.951340          161.94419
     61       0.00000           5.997864          163.21017
     62       0.00000           6.714475          182.71017
     63       0.00000           7.022526          191.09265
     64       0.00000           7.180752          195.39820
     65       0.00000           7.201707          195.96841
     66       0.00000           7.495050          203.95069
     67       0.00000           7.838412          213.29405
     68       0.00000           8.099241          220.39157
     69       0.00000           8.348754          227.18115

  Highest occupied state (VBM) at    -11.27250830 eV (relative to internal zero)
  | Occupation number:      2.00000000
  | K-point:       1 at    0.000000    0.000000    0.000000 (in units of recip. lattice)

  Lowest unoccupied state (CBM) at    -3.14167736 eV (relative to internal zero)
  | Occupation number:      0.00000000
  | K-point:       1 at    0.000000    0.000000    0.000000 (in units of recip. lattice)

  ESTIMATED overall HOMO-LUMO gap:      8.13083094 eV between HOMO at k-point 1 and LUMO at k-point 1
  The gap value is above 0.2 eV. Unless you are using a very sparse k-point grid,
  this system is most likely an insulator or a semiconductor.

  Total energy components:
  | Sum of eigenvalues            :         -43.05825407 Ha       -1171.67470737 eV
  | XC energy correction          :          -9.02060255 Ha        -245.46308436 eV
  | XC potential correction       :          11.59818336 Ha         315.60262687 eV
  | Free-atom electrostatic energy:         -35.80138183 Ha        -974.20516656 eV
  | Hartree energy correction     :          -0.15520277 Ha          -4.22328230 eV
  | Entropy correction            :           0.00000000 Ha           0.00000000 eV
  | ---------------------------
  | Total energy                  :         -76.43725786 Ha       -2079.96361371 eV
  | Total energy, T -> 0          :         -76.43725786 Ha       -2079.96361371 eV  <-- do not rely on this value for anything but (periodic) metals
  | Electronic free energy        :         -76.43725786 Ha       -2079.96361371 eV

  Derived energy quantities:
  | Kinetic energy                :          75.63419865 Ha        2058.11126075 eV
  | Electrostatic energy          :        -143.05085396 Ha       -3892.61179010 eV
  | Energy correction for multipole
  | error in Hartree potential    :          -0.00009855 Ha          -0.00268172 eV
  | Sum of eigenvalues per atom                           :        -390.55823579 eV
  | Total energy (T->0) per atom                          :        -693.32120457 eV  <-- do not rely on this value for anything but (periodic) metals
  | Electronic free energy per atom                       :        -693.32120457 eV
  Evaluating new KS density using the density matrix
  Evaluating density matrix
  Time summed over all CPUs for getting density from density matrix: real work        2.149 s, elapsed        2.149 s
  Integration grid: deviation in total charge (<rho> - N_e) =   1.065814E-14

  Self-consistency convergence accuracy:
  | Change of charge density      :  0.3030E+00
  | Change of unmixed KS density  :  0.9101E+01
  | Change of sum of eigenvalues  :  0.4420E+01 eV
  | Change of total energy        :  0.3513E+00 eV


------------------------------------------------------------
  End self-consistency iteration #     1       :  max(cpu_time)    wall_clock(cpu1)
  | Time for this iteration                     :        6.972 s           7.119 s
  | Charge density update                       :        2.124 s           2.151 s
  | Density mixing & preconditioning            :        1.284 s           1.314 s
  | Hartree multipole update                    :        0.004 s           0.006 s
  | Hartree multipole summation                 :        2.480 s           2.504 s
  | Integration                                 :        1.076 s           1.135 s
  | Solution of K.-S. eqns.                     :        0.004 s           0.003 s
  | Total energy evaluation                     :        0.000 s           0.002 s

  Partial memory accounting:
  | Current value for overall tracked memory usage:
  |   Minimum:        1.229 MB (on task 0)
  |   Maximum:        1.229 MB (on task 0)
  |   Average:        1.229 MB
  | Peak value for overall tracked memory usage:
  |   Minimum:        5.986 MB (on task 0 after allocating gradient_basis_wave)
  |   Maximum:        5.986 MB (on task 0 after allocating gradient_basis_wave)
  |   Average:        5.986 MB
  | Largest tracked array allocation so far:
  |   Minimum:        1.725 MB (gradient_basis_wave on task 0)
  |   Maximum:        1.725 MB (gradient_basis_wave on task 0)
  |   Average:        1.725 MB
  Note:  These values currently only include a subset of arrays which are explicitly tracked.
  The "true" memory usage will be greater.
------------------------------------------------------------

------------------------------------------------------------
          Begin self-consistency iteration #    2

  Date     :  20220921, Time     :  123431.026
------------------------------------------------------------
  Pulay mixing of updated and previous charge densities.
  Renormalizing the density to the exact electron count on the 3D integration grid.
  | Formal number of electrons (from input files) :      10.0000000000
  | Integrated number of electrons on 3D grid     :       9.9971841054
  | Charge integration error                      :      -0.0028158946
  | Normalization factor for density and gradient :       1.0002816688

  Evaluating partitioned Hartree potential by multipole expansion.
  | Original multipole sum: apparent total charge =  -0.466496E-13
  | Sum of charges compensated after spline to logarithmic grids =   0.780986E-06
  | Analytical far-field extrapolation by fixed multipoles:
  | Hartree multipole sum: apparent total charge =  -0.466004E-13
  Summing up the Hartree potential.
  Time summed over all CPUs for potential: real work        2.875 s, elapsed        2.875 s
  | RMS charge density error from multipole expansion :   0.978084E-03
  | Average real-space part of the electrostatic potential :      0.07917923 eV

  Integrating Hamiltonian matrix: batch-based integration.
  Time summed over all CPUs for integration: real work        1.094 s, elapsed        1.094 s

  Updating Kohn-Sham eigenvalues and eigenvectors using ELSI and the (modified) LAPACK eigensolver.
  Starting LAPACK eigensolver
  Finished Cholesky decomposition
  | Time :     0.000 s
  Finished transformation to standard eigenproblem
  | Time :     0.000 s
  Finished solving standard eigenproblem
  | Time :     0.001 s
  Finished back-transformation of eigenvectors
  | Time :     0.000 s

  Obtaining occupation numbers and electronic chemical potential using ELSI.
  | Note that, for insulating systems, the printed 'chemical potential' value is not uniquely defined.
  | It can be anywhere in the energy gap, as long as it correctly separates occupied and unoccupied states.
  | In systems with a gap, the physically relevant chemical potential is the VBM or HOMO.

  | Chemical potential (Fermi level):    -7.58042089 eV
  Highest occupied state (VBM) at     -8.44841830 eV (relative to internal zero)
  | Occupation number:      2.00000000
  | K-point:       1 at    0.000000    0.000000    0.000000 (in units of recip. lattice)

  Lowest unoccupied state (CBM) at    -2.82273374 eV (relative to internal zero)
  | Occupation number:      0.00000000
  | K-point:       1 at    0.000000    0.000000    0.000000 (in units of recip. lattice)

  ESTIMATED overall HOMO-LUMO gap:      5.62568456 eV between HOMO at k-point 1 and LUMO at k-point 1
  The gap value is above 0.2 eV. Unless you are using a very sparse k-point grid,
  this system is most likely an insulator or a semiconductor.

  Checking to see if s.c.f. parameters should be adjusted.
  The system likely has a gap. Increased the default Pulay mixing parameter (charge_mix_param). Value:   0.200000 .
  Kept the default occupation width. Value:   0.010000 eV.

  Total energy components:
  | Sum of eigenvalues            :         -41.88385628 Ha       -1139.71771745 eV
  | XC energy correction          :          -9.16484571 Ha        -249.38814047 eV
  | XC potential correction       :          11.78572677 Ha         320.70594277 eV
  | Free-atom electrostatic energy:         -35.80138183 Ha        -974.20516656 eV
  | Hartree energy correction     :          -1.32090712 Ha         -35.94371142 eV
  | Entropy correction            :           0.00000000 Ha           0.00000000 eV
  | ---------------------------
  | Total energy                  :         -76.38526416 Ha       -2078.54879312 eV
  | Total energy, T -> 0          :         -76.38526416 Ha       -2078.54879312 eV  <-- do not rely on this value for anything but (periodic) metals
  | Electronic free energy        :         -76.38526416 Ha       -2078.54879312 eV

  Derived energy quantities:
  | Kinetic energy                :          76.42540270 Ha        2079.64101850 eV
  | Electrostatic energy          :        -143.64582115 Ha       -3908.80167116 eV
  | Energy correction for multipole
  | error in Hartree potential    :          -0.00084638 Ha          -0.02303123 eV
  | Sum of eigenvalues per atom                           :        -379.90590582 eV
  | Total energy (T->0) per atom                          :        -692.84959771 eV  <-- do not rely on this value for anything but (periodic) metals
  | Electronic free energy per atom                       :        -692.84959771 eV
  Evaluating new KS density using the density matrix
  Evaluating density matrix
  Time summed over all CPUs for getting density from density matrix: real work        2.141 s, elapsed        2.141 s
  Integration grid: deviation in total charge (<rho> - N_e) =  -2.309264E-14

  Self-consistency convergence accuracy:
  | Change of charge density      :  0.2728E+00
  | Change of unmixed KS density  :  0.2331E-01
  | Change of sum of eigenvalues  :  0.3196E+02 eV
  | Change of total energy        :  0.1415E+01 eV


------------------------------------------------------------
  End self-consistency iteration #     2       :  max(cpu_time)    wall_clock(cpu1)
  | Time for this iteration                     :        7.324 s           7.456 s
  | Charge density update                       :        2.120 s           2.144 s
  | Density mixing & preconditioning            :        1.276 s           1.293 s
  | Hartree multipole update                    :        0.004 s           0.006 s
  | Hartree multipole summation                 :        2.840 s           2.911 s
  | Integration                                 :        1.080 s           1.096 s
  | Solution of K.-S. eqns.                     :        0.004 s           0.003 s
  | Total energy evaluation                     :        0.000 s           0.001 s

  Partial memory accounting:
  | Current value for overall tracked memory usage:
  |   Minimum:        1.229 MB (on task 0)
  |   Maximum:        1.229 MB (on task 0)
  |   Average:        1.229 MB
  | Peak value for overall tracked memory usage:
  |   Minimum:        5.986 MB (on task 0 after allocating gradient_basis_wave)
  |   Maximum:        5.986 MB (on task 0 after allocating gradient_basis_wave)
  |   Average:        5.986 MB
  | Largest tracked array allocation so far:
  |   Minimum:        1.725 MB (gradient_basis_wave on task 0)
  |   Maximum:        1.725 MB (gradient_basis_wave on task 0)
  |   Average:        1.725 MB
  Note:  These values currently only include a subset of arrays which are explicitly tracked.
  The "true" memory usage will be greater.
------------------------------------------------------------

------------------------------------------------------------
          Begin self-consistency iteration #    3

  Date     :  20220921, Time     :  123438.484
------------------------------------------------------------
  Pulay mixing of updated and previous charge densities.
  Renormalizing the density to the exact electron count on the 3D integration grid.
  | Formal number of electrons (from input files) :      10.0000000000
  | Integrated number of electrons on 3D grid     :       9.9979355145
  | Charge integration error                      :      -0.0020644855
  | Normalization factor for density and gradient :       1.0002064912

  Evaluating partitioned Hartree potential by multipole expansion.
  | Original multipole sum: apparent total charge =  -0.193830E-13
  | Sum of charges compensated after spline to logarithmic grids =   0.556463E-06
  | Analytical far-field extrapolation by fixed multipoles:
  | Hartree multipole sum: apparent total charge =  -0.197520E-13
  Summing up the Hartree potential.
  Time summed over all CPUs for potential: real work        2.895 s, elapsed        2.895 s
  | RMS charge density error from multipole expansion :   0.157105E-02
  | Average real-space part of the electrostatic potential :      0.09499639 eV

  Integrating Hamiltonian matrix: batch-based integration.
  Time summed over all CPUs for integration: real work        1.100 s, elapsed        1.100 s

  Updating Kohn-Sham eigenvalues and eigenvectors using ELSI and the (modified) LAPACK eigensolver.
  Starting LAPACK eigensolver
  Finished Cholesky decomposition
  | Time :     0.000 s
  Finished transformation to standard eigenproblem
  | Time :     0.000 s
  Finished solving standard eigenproblem
  | Time :     0.001 s
  Finished back-transformation of eigenvectors
  | Time :     0.000 s

  Obtaining occupation numbers and electronic chemical potential using ELSI.
  | Note that, for insulating systems, the printed 'chemical potential' value is not uniquely defined.
  | It can be anywhere in the energy gap, as long as it correctly separates occupied and unoccupied states.
  | In systems with a gap, the physically relevant chemical potential is the VBM or HOMO.

  | Chemical potential (Fermi level):    -8.43198211 eV
  Highest occupied state (VBM) at     -8.88534337 eV (relative to internal zero)
  | Occupation number:      2.00000000
  | K-point:       1 at    0.000000    0.000000    0.000000 (in units of recip. lattice)

  Lowest unoccupied state (CBM) at    -2.83063703 eV (relative to internal zero)
  | Occupation number:      0.00000000
  | K-point:       1 at    0.000000    0.000000    0.000000 (in units of recip. lattice)

  ESTIMATED overall HOMO-LUMO gap:      6.05470634 eV between HOMO at k-point 1 and LUMO at k-point 1
  The gap value is above 0.2 eV. Unless you are using a very sparse k-point grid,
  this system is most likely an insulator or a semiconductor.

  Total energy components:
  | Sum of eigenvalues            :         -42.14767516 Ha       -1146.89659457 eV
  | XC energy correction          :          -9.13347205 Ha        -248.53441972 eV
  | XC potential correction       :          11.74541667 Ha         319.60904912 eV
  | Free-atom electrostatic energy:         -35.80138183 Ha        -974.20516656 eV
  | Hartree energy correction     :          -1.05128305 Ha         -28.60686720 eV
  | Entropy correction            :           0.00000000 Ha           0.00000000 eV
  | ---------------------------
  | Total energy                  :         -76.38839541 Ha       -2078.63399892 eV
  | Total energy, T -> 0          :         -76.38839541 Ha       -2078.63399892 eV  <-- do not rely on this value for anything but (periodic) metals
  | Electronic free energy        :         -76.38839541 Ha       -2078.63399892 eV

  Derived energy quantities:
  | Kinetic energy                :          76.00297985 Ha        2068.14630785 eV
  | Electrostatic energy          :        -143.25790322 Ha       -3898.24588705 eV
  | Energy correction for multipole
  | error in Hartree potential    :          -0.00065106 Ha          -0.01771613 eV
  | Sum of eigenvalues per atom                           :        -382.29886486 eV
  | Total energy (T->0) per atom                          :        -692.87799964 eV  <-- do not rely on this value for anything but (periodic) metals
  | Electronic free energy per atom                       :        -692.87799964 eV
  Evaluating new KS density using the density matrix
  Evaluating density matrix
  Time summed over all CPUs for getting density from density matrix: real work        2.155 s, elapsed        2.155 s
  Integration grid: deviation in total charge (<rho> - N_e) =  -1.065814E-14

  Self-consistency convergence accuracy:
  | Change of charge density      :  0.1179E+00
  | Change of unmixed KS density  :  0.1773E+00
  | Change of sum of eigenvalues  : -0.7179E+01 eV
  | Change of total energy        : -0.8521E-01 eV


------------------------------------------------------------
  End self-consistency iteration #     3       :  max(cpu_time)    wall_clock(cpu1)
  | Time for this iteration                     :        7.372 s           7.493 s
  | Charge density update                       :        2.116 s           2.157 s
  | Density mixing & preconditioning            :        1.284 s           1.294 s
  | Hartree multipole update                    :        0.004 s           0.006 s
  | Hartree multipole summation                 :        2.884 s           2.931 s
  | Integration                                 :        1.080 s           1.101 s
  | Solution of K.-S. eqns.                     :        0.004 s           0.003 s
  | Total energy evaluation                     :        0.000 s           0.001 s

  Partial memory accounting:
  | Current value for overall tracked memory usage:
  |   Minimum:        1.229 MB (on task 0)
  |   Maximum:        1.229 MB (on task 0)
  |   Average:        1.229 MB
  | Peak value for overall tracked memory usage:
  |   Minimum:        5.986 MB (on task 0 after allocating gradient_basis_wave)
  |   Maximum:        5.986 MB (on task 0 after allocating gradient_basis_wave)
  |   Average:        5.986 MB
  | Largest tracked array allocation so far:
  |   Minimum:        1.725 MB (gradient_basis_wave on task 0)
  |   Maximum:        1.725 MB (gradient_basis_wave on task 0)
  |   Average:        1.725 MB
  Note:  These values currently only include a subset of arrays which are explicitly tracked.
  The "true" memory usage will be greater.
------------------------------------------------------------

------------------------------------------------------------
          Begin self-consistency iteration #    4

  Date     :  20220921, Time     :  123445.979
------------------------------------------------------------
  Pulay mixing of updated and previous charge densities.
  Renormalizing the density to the exact electron count on the 3D integration grid.
  | Formal number of electrons (from input files) :      10.0000000000
  | Integrated number of electrons on 3D grid     :       9.9963634594
  | Charge integration error                      :      -0.0036365406
  | Normalization factor for density and gradient :       1.0003637863

  Evaluating partitioned Hartree potential by multipole expansion.
  | Original multipole sum: apparent total charge =  -0.557385E-13
  | Sum of charges compensated after spline to logarithmic grids =   0.715244E-06
  | Analytical far-field extrapolation by fixed multipoles:
  | Hartree multipole sum: apparent total charge =  -0.566240E-13
  Summing up the Hartree potential.
  Time summed over all CPUs for potential: real work        2.964 s, elapsed        2.964 s
  | RMS charge density error from multipole expansion :   0.258390E-02
  | Average real-space part of the electrostatic potential :      0.14949192 eV

  Integrating Hamiltonian matrix: batch-based integration.
  Time summed over all CPUs for integration: real work        1.086 s, elapsed        1.086 s

  Updating Kohn-Sham eigenvalues and eigenvectors using ELSI and the (modified) LAPACK eigensolver.
  Starting LAPACK eigensolver
  Finished Cholesky decomposition
  | Time :     0.000 s
  Finished transformation to standard eigenproblem
  | Time :     0.000 s
  Finished solving standard eigenproblem
  | Time :     0.001 s
  Finished back-transformation of eigenvectors
  | Time :     0.000 s

  Obtaining occupation numbers and electronic chemical potential using ELSI.
  | Note that, for insulating systems, the printed 'chemical potential' value is not uniquely defined.
  | It can be anywhere in the energy gap, as long as it correctly separates occupied and unoccupied states.
  | In systems with a gap, the physically relevant chemical potential is the VBM or HOMO.

  | Chemical potential (Fermi level):    -7.24390980 eV
  Highest occupied state (VBM) at     -7.67061520 eV (relative to internal zero)
  | Occupation number:      2.00000000
  | K-point:       1 at    0.000000    0.000000    0.000000 (in units of recip. lattice)

  Lowest unoccupied state (CBM) at    -2.62019829 eV (relative to internal zero)
  | Occupation number:      0.00000000
  | K-point:       1 at    0.000000    0.000000    0.000000 (in units of recip. lattice)

  ESTIMATED overall HOMO-LUMO gap:      5.05041691 eV between HOMO at k-point 1 and LUMO at k-point 1
  The gap value is above 0.2 eV. Unless you are using a very sparse k-point grid,
  this system is most likely an insulator or a semiconductor.

  Total energy components:
  | Sum of eigenvalues            :         -41.70586342 Ha       -1134.87428541 eV
  | XC energy correction          :          -9.19625397 Ha        -250.24280276 eV
  | XC potential correction       :          11.82770377 Ha         321.84819509 eV
  | Free-atom electrostatic energy:         -35.80138183 Ha        -974.20516656 eV
  | Hartree energy correction     :          -1.50397062 Ha         -40.92512269 eV
  | Entropy correction            :           0.00000000 Ha           0.00000000 eV
  | ---------------------------
  | Total energy                  :         -76.37976606 Ha       -2078.39918233 eV
  | Total energy, T -> 0          :         -76.37976606 Ha       -2078.39918233 eV  <-- do not rely on this value for anything but (periodic) metals
  | Electronic free energy        :         -76.37976606 Ha       -2078.39918233 eV

  Derived energy quantities:
  | Kinetic energy                :          76.06273659 Ha        2069.77237154 eV
  | Electrostatic energy          :        -143.24624868 Ha       -3897.92875110 eV
  | Energy correction for multipole
  | error in Hartree potential    :          -0.00095120 Ha          -0.02588350 eV
  | Sum of eigenvalues per atom                           :        -378.29142847 eV
  | Total energy (T->0) per atom                          :        -692.79972744 eV  <-- do not rely on this value for anything but (periodic) metals
  | Electronic free energy per atom                       :        -692.79972744 eV
  Evaluating new KS density using the density matrix
  Evaluating density matrix
  Time summed over all CPUs for getting density from density matrix: real work        2.177 s, elapsed        2.177 s
  Integration grid: deviation in total charge (<rho> - N_e) =  -1.065814E-14

  Self-consistency convergence accuracy:
  | Change of charge density      :  0.1023E+00
  | Change of unmixed KS density  :  0.5630E-01
  | Change of sum of eigenvalues  :  0.1202E+02 eV
  | Change of total energy        :  0.2348E+00 eV


------------------------------------------------------------
  End self-consistency iteration #     4       :  max(cpu_time)    wall_clock(cpu1)
  | Time for this iteration                     :        7.436 s           7.578 s
  | Charge density update                       :        2.116 s           2.179 s
  | Density mixing & preconditioning            :        1.264 s           1.302 s
  | Hartree multipole update                    :        0.004 s           0.006 s
  | Hartree multipole summation                 :        2.968 s           3.001 s
  | Integration                                 :        1.080 s           1.086 s
  | Solution of K.-S. eqns.                     :        0.004 s           0.003 s
  | Total energy evaluation                     :        0.000 s           0.001 s

  Partial memory accounting:
  | Current value for overall tracked memory usage:
  |   Minimum:        1.229 MB (on task 0)
  |   Maximum:        1.229 MB (on task 0)
  |   Average:        1.229 MB
  | Peak value for overall tracked memory usage:
  |   Minimum:        5.986 MB (on task 0 after allocating gradient_basis_wave)
  |   Maximum:        5.986 MB (on task 0 after allocating gradient_basis_wave)
  |   Average:        5.986 MB
  | Largest tracked array allocation so far:
  |   Minimum:        1.725 MB (gradient_basis_wave on task 0)
  |   Maximum:        1.725 MB (gradient_basis_wave on task 0)
  |   Average:        1.725 MB
  Note:  These values currently only include a subset of arrays which are explicitly tracked.
  The "true" memory usage will be greater.
------------------------------------------------------------

------------------------------------------------------------
          Begin self-consistency iteration #    5

  Date     :  20220921, Time     :  123453.559
------------------------------------------------------------
  Pulay mixing of updated and previous charge densities.
  Renormalizing the density to the exact electron count on the 3D integration grid.
  | Formal number of electrons (from input files) :      10.0000000000
  | Integrated number of electrons on 3D grid     :       9.9989343436
  | Charge integration error                      :      -0.0010656564
  | Normalization factor for density and gradient :       1.0001065770

  Evaluating partitioned Hartree potential by multipole expansion.
  | Original multipole sum: apparent total charge =  -0.620847E-13
  | Sum of charges compensated after spline to logarithmic grids =   0.807186E-06
  | Analytical far-field extrapolation by fixed multipoles:
  | Hartree multipole sum: apparent total charge =  -0.622815E-13
  Summing up the Hartree potential.
  Time summed over all CPUs for potential: real work        2.994 s, elapsed        2.994 s
  | RMS charge density error from multipole expansion :   0.258192E-02
  | Average real-space part of the electrostatic potential :      0.15733637 eV

  Integrating Hamiltonian matrix: batch-based integration.
  Time summed over all CPUs for integration: real work        1.090 s, elapsed        1.090 s

  Updating Kohn-Sham eigenvalues and eigenvectors using ELSI and the (modified) LAPACK eigensolver.
  Starting LAPACK eigensolver
  Finished Cholesky decomposition
  | Time :     0.001 s
  Finished transformation to standard eigenproblem
  | Time :     0.000 s
  Finished solving standard eigenproblem
  | Time :     0.001 s
  Finished back-transformation of eigenvectors
  | Time :     0.000 s

  Obtaining occupation numbers and electronic chemical potential using ELSI.
  | Note that, for insulating systems, the printed 'chemical potential' value is not uniquely defined.
  | It can be anywhere in the energy gap, as long as it correctly separates occupied and unoccupied states.
  | In systems with a gap, the physically relevant chemical potential is the VBM or HOMO.

  | Chemical potential (Fermi level):    -7.04643115 eV
  Highest occupied state (VBM) at     -7.50690312 eV (relative to internal zero)
  | Occupation number:      2.00000000
  | K-point:       1 at    0.000000    0.000000    0.000000 (in units of recip. lattice)

  Lowest unoccupied state (CBM) at    -2.59020222 eV (relative to internal zero)
  | Occupation number:      0.00000000
  | K-point:       1 at    0.000000    0.000000    0.000000 (in units of recip. lattice)

  ESTIMATED overall HOMO-LUMO gap:      4.91670090 eV between HOMO at k-point 1 and LUMO at k-point 1
  The gap value is above 0.2 eV. Unless you are using a very sparse k-point grid,
  this system is most likely an insulator or a semiconductor.

  Total energy components:
  | Sum of eigenvalues            :         -41.64058495 Ha       -1133.09796782 eV
  | XC energy correction          :          -9.20547807 Ha        -250.49380330 eV
[...]
  |    O      2     5.432602 A      5.432602 A        6.971814E-16 a.u.
  |    O      2     5.432602 A      5.432602 A        6.521279E-16 a.u.
  |    O      0     5.432602 A      5.499423 A       -1.598398E-16 a.u.
  |    O      1     5.432602 A      5.499423 A       -6.623470E-16 a.u.
  |    O      2     5.432602 A      5.499423 A        2.577536E-15 a.u.
  |    O      2     5.432602 A      5.499423 A        9.407342E-16 a.u.
  |    O      8     3.372465 A  6.545495E+01 A           53.933996 a.u.
  |    O      7     3.541477 A  1.266729E+02 A           85.792738 a.u.
  |    O      6     3.811008 A  3.160550E+02 A          215.734909 a.u.
  |    O      5     3.905335 A  7.546116E+02 A           66.915101 a.u.
  |    O      4     4.522403 A  3.227085E+03 A           67.117585 a.u.
  |    O      3     4.807458 A  2.586410E+04 A           45.412481 a.u.
  |    O      2     5.499423 A  6.214935E+05 A           12.891294 a.u.
  |    O      1     5.432602 A  2.966726E+08 A            2.501167 a.u.
  |    O      0     5.432602 A  4.309228E+16 A            0.648020 a.u.
  |    H      3     3.910002 A      3.910002 A       -8.941771E-16 a.u.
  |    H      3     3.910002 A      3.910002 A       -1.372309E-15 a.u.
  |    H      2     4.006780 A      4.006780 A        3.881382E-18 a.u.
  |    H      2     4.156456 A      4.156456 A       -8.736380E-16 a.u.
  |    H      2     4.156456 A      4.156456 A       -8.722129E-17 a.u.
  |    H      1     4.207581 A      4.207581 A        1.190097E-16 a.u.
  |    H      2     4.207581 A      4.207581 A        1.758706E-15 a.u.
  |    H      1     4.259334 A      4.259334 A        2.691313E-16 a.u.
  |    H      2     4.259334 A      4.259334 A        3.692414E-15 a.u.
  |    H      1     4.311724 A      4.364758 A       -2.140018E-16 a.u.
  |    H      1     4.527807 A      4.527807 A        2.361174E-17 a.u.
  |    H      1     4.472792 A      4.527807 A        3.714828E-16 a.u.
  |    H      1     4.472792 A      4.527807 A       -2.080923E-16 a.u.
  |    H      0     5.307721 A      5.307721 A       -1.945442E-17 a.u.
  |    H      0     5.307721 A      5.373006 A        3.815092E-16 a.u.
  |    H      0     5.439094 A      5.505995 A        1.661055E-16 a.u.
  |    H      0     5.439094 A      5.505995 A       -2.230350E-16 a.u.
  |    H      0     5.439094 A      5.505995 A        6.714831E-17 a.u.
  |    H      0     5.439094 A      5.505995 A       -7.560024E-17 a.u.
  |    H      0     5.505995 A      5.573719 A        1.581063E-16 a.u.
  |    H      0     5.505995 A      5.573719 A       -4.252689E-16 a.u.
  |    H      4     3.723403 A  1.627943E+03 A            2.192707 a.u.
  |    H      3     3.958095 A  1.432892E+04 A            4.277983 a.u.
  |    H      2     4.259334 A  4.743921E+05 A            5.733227 a.u.
  |    H      1     4.472792 A  2.627419E+08 A            1.961763 a.u.
  |    H      0     5.505995 A  5.052152E+16 A            0.759741 a.u.

  | Shrink_full_auxil_basis : there are       79  radial auxiliary wave functions
                            accepted and     113 rejected.
  | Shrink_full_auxil_basis : there are totally                 517 partial auxiliary wave functions.
 
  | Number of product basis functions per thread :   517
  | Minimal requirement for computer memory :           0.011 Gbs
 
  Basis pair condensation :      2415  -->       2415
 
 --------------------------------------------
  Constructing auxiliary basis (full product) ...
 
  Product basis:
  | charge radius: extent of product basis function
  | field radius: extent of its Coulomb potential
  | Species   l  charge radius    field radius  multipol momen
  |    O      0     2.043000 A      2.043000 A       -4.960558E-17 a.u.
  |    O      7     3.498446 A      3.498446 A        2.436164E-14 a.u.
  |    O      6     3.585037 A      3.585037 A        4.134405E-15 a.u.
  |    O      6     3.718959 A      3.718959 A       -1.637045E-15 a.u.
  |    O      6     3.764702 A      3.764702 A       -4.267479E-15 a.u.
  |    O      4     3.811008 A      3.811008 A       -1.730877E-15 a.u.
  |    O      5     3.811008 A      3.811008 A        1.416843E-15 a.u.
  |    O      3     3.857883 A      3.857883 A       -3.574833E-17 a.u.
  |    O      5     3.857883 A      3.857883 A        1.022360E-14 a.u.
  |    O      5     3.905335 A      3.905335 A        1.269833E-14 a.u.
  |    O      3     3.953371 A      3.953371 A       -2.838968E-16 a.u.
  |    O      3     3.953371 A      3.953371 A        9.789340E-16 a.u.
  |    O      1     4.151495 A      4.151495 A        1.153357E-16 a.u.
  |    O      0     4.202559 A      4.202559 A       -1.197631E-18 a.u.
  |    O      0     4.202559 A      4.202559 A       -1.929751E-17 a.u.
  |    O      4     4.359549 A      4.359549 A       -2.110901E-16 a.u.
  |    O      3     4.413171 A      4.413171 A        1.879323E-15 a.u.
  |    O      4     4.413171 A      4.413171 A        1.265856E-14 a.u.
  |    O      0     4.467453 A      4.467453 A       -1.337118E-16 a.u.
  |    O      1     4.467453 A      4.467453 A       -2.473118E-17 a.u.
  |    O      4     4.467453 A      4.467453 A       -6.176044E-15 a.u.
  |    O      4     4.467453 A      4.467453 A       -7.613536E-15 a.u.
  |    O      1     4.578029 A      4.578029 A        5.196354E-18 a.u.
  |    O      2     4.578029 A      4.578029 A        4.424971E-17 a.u.
  |    O      1     4.634338 A      4.634338 A        1.950805E-17 a.u.
  |    O      1     4.634338 A      4.634338 A        1.866713E-16 a.u.
  |    O      1     4.634338 A      4.634338 A        1.425744E-16 a.u.
  |    O      3     4.634338 A      4.634338 A        7.949122E-15 a.u.
  |    O      3     4.749044 A      4.749044 A       -3.116693E-17 a.u.
  |    O      3     4.749044 A      4.749044 A        1.811034E-15 a.u.
  |    O      0     4.987044 A      4.987044 A        1.255033E-16 a.u.
  |    O      0     4.987044 A      4.987044 A        1.038959E-16 a.u.
  |    O      2     5.236971 A      5.236971 A        2.903990E-16 a.u.
  |    O      2     5.236971 A      5.236971 A       -3.133973E-16 a.u.
  |    O      0     5.366593 A      5.432602 A       -1.467074E-16 a.u.
  |    O      1     5.432602 A      5.432602 A        6.570290E-16 a.u.
  |    O      1     5.432602 A      5.432602 A        4.359738E-17 a.u.
  |    O      2     5.432602 A      5.432602 A       -3.887858E-15 a.u.
  |    O      2     5.432602 A      5.432602 A        6.971814E-16 a.u.
  |    O      2     5.432602 A      5.432602 A        6.521279E-16 a.u.
  |    O      0     5.432602 A      5.499423 A       -1.598398E-16 a.u.
  |    O      1     5.432602 A      5.499423 A       -6.623470E-16 a.u.
  |    O      2     5.432602 A      5.499423 A        2.577536E-15 a.u.
  |    O      2     5.432602 A      5.499423 A        9.407342E-16 a.u.
  |    O      8     3.372465 A  6.545495E+01 A           53.933996 a.u.
  |    O      7     3.541477 A  1.266729E+02 A           85.792738 a.u.
  |    O      6     3.811008 A  3.160550E+02 A          215.734909 a.u.
  |    O      5     3.905335 A  7.546116E+02 A           66.915101 a.u.
  |    O      4     4.522403 A  3.227085E+03 A           67.117585 a.u.
  |    O      3     4.807458 A  2.586410E+04 A           45.412481 a.u.
  |    O      2     5.499423 A  6.214935E+05 A           12.891294 a.u.
  |    O      1     5.432602 A  2.966726E+08 A            2.501167 a.u.
  |    O      0     5.432602 A  4.309228E+16 A            0.648020 a.u.
  |    H      3     3.910002 A      3.910002 A       -8.941771E-16 a.u.
  |    H      3     3.910002 A      3.910002 A       -1.372309E-15 a.u.
  |    H      2     4.006780 A      4.006780 A        3.881382E-18 a.u.
  |    H      2     4.156456 A      4.156456 A       -8.736380E-16 a.u.
  |    H      2     4.156456 A      4.156456 A       -8.722129E-17 a.u.
  |    H      1     4.207581 A      4.207581 A        1.190097E-16 a.u.
  |    H      2     4.207581 A      4.207581 A        1.758706E-15 a.u.
  |    H      1     4.259334 A      4.259334 A        2.691313E-16 a.u.
  |    H      2     4.259334 A      4.259334 A        3.692414E-15 a.u.
  |    H      1     4.311724 A      4.364758 A       -2.140018E-16 a.u.
  |    H      1     4.527807 A      4.527807 A        2.361174E-17 a.u.
  |    H      1     4.472792 A      4.527807 A        3.714828E-16 a.u.
  |    H      1     4.472792 A      4.527807 A       -2.080923E-16 a.u.
  |    H      0     5.307721 A      5.307721 A       -1.945442E-17 a.u.
  |    H      0     5.307721 A      5.373006 A        3.815092E-16 a.u.
  |    H      0     5.439094 A      5.505995 A        1.661055E-16 a.u.
  |    H      0     5.439094 A      5.505995 A       -2.230350E-16 a.u.
  |    H      0     5.439094 A      5.505995 A        6.714831E-17 a.u.
  |    H      0     5.439094 A      5.505995 A       -7.560024E-17 a.u.
  |    H      0     5.505995 A      5.573719 A        1.581063E-16 a.u.
  |    H      0     5.505995 A      5.573719 A       -4.252689E-16 a.u.
  |    H      4     3.723403 A  1.627943E+03 A            2.192707 a.u.
  |    H      3     3.958095 A  1.432892E+04 A            4.277983 a.u.
  |    H      2     4.259334 A  4.743921E+05 A            5.733227 a.u.
  |    H      1     4.472792 A  2.627419E+08 A            1.961763 a.u.
  |    H      0     5.505995 A  5.052152E+16 A            0.759741 a.u.

  | Shrink_full_auxil_basis : there are       79  radial auxiliary wave functions
                            accepted and     113 rejected.
  | Shrink_full_auxil_basis : there are totally                 517 partial auxiliary wave functions.
 
  | Number of product basis functions per thread :   517
  | Minimal requirement for computer memory :           0.011 Gbs
 
  Basis pair condensation :      2415  -->       2415
dP_dE (Bohr^3) at every cycle:--->
 (12.7616393989699,0.000000000000000E+000) (0.524495542467658,0.000000000000000E+000) (-0.252342723166779,0.000000000000000E+000)
 (0.524511764066325,0.000000000000000E+000) (11.3889843489288,0.000000000000000E+000) (2.664438614301968E-002,0.000000000000000E+000)
 (-0.252460271702821,0.000000000000000E+000) (2.657653599979834E-002,0.000000000000000E+000) (15.8053302714458,0.000000000000000E+000)
DFPT polarizability (Bohr^3)        xx        yy        zz        xy        xz        yz
  | Polarizability:--->             12.762    11.389    15.805     0.524    -0.252     0.027

DFPT for dielectric_constant:--->
   1.19011208130435       7.813489795161241E-003 -3.759187891417416E-003
  7.813731450781524E-003   1.16966343044392       3.969254690847201E-004
 -3.760939029820757E-003  3.959146951910738E-004   1.23545440673161

                                               :  max(cpu_time)    wall_clock(cpu1)
  | Time for  dielectric calculation            :        0.000 s           0.000 s
===========================================================================

------------------------------------------------------------------------------
  Final output of selected total energy values:

  The following output summarizes some interesting total energy values
  at the end of a run (AFTER all relaxation, molecular dynamics, etc.).

  | Total energy of the DFT / Hartree-Fock s.c.f. calculation      :          -2078.385403183 eV
  | Final zero-broadening corrected energy (caution - metals only) :          -2078.385403183 eV
  | For reference only, the value of 1 Hartree used in FHI-aims is :             27.211384500 eV
  | For reference only, the overall average (free atom contribution
  | + realspace contribution) of the electrostatic potential after
  | s.c.f. convergence is                                          :             -1.120108560 eV

  Before relying on these values, please be sure to understand exactly which
  total energy value is referred to by a given number. Different objects may
  all carry the same name 'total energy'. Definitions:

  Total energy of the DFT / Hartree-Fock s.c.f. calculation:
  | Note that this energy does not include ANY quantities calculated after the
  | s.c.f. cycle, in particular not ANY RPA, MP2, etc. many-body perturbation terms.

  Final zero-broadening corrected energy:
  | For metallic systems only, a broadening of the occupation numbers at the Fermi
  | level can be extrapolated back to zero broadening by an electron-gas inspired
  | formula. For all systems that are not real metals, this value can be
  | meaningless and should be avoided.

------------------------------------------------------------------------------
  Methods described in the following list of references were used in this FHI-aims run.
  If you publish the results, please make sure to cite these reference if they apply.
  FHI-aims is an academic code, and for our developers (often, Ph.D. students
  and postdocs), scientific credit in the community is essential.
  Thank you for helping us!

  For any use of FHI-aims, please cite:

    Volker Blum, Ralf Gehrke, Felix Hanke, Paula Havu, Ville Havu,
    Xinguo Ren, Karsten Reuter, and Matthias Scheffler
    'Ab initio molecular simulations with numeric atom-centered orbitals'
    Computer Physics Communications 180, 2175-2196 (2009)
    http://doi.org/10.1016/j.cpc.2009.06.022


  For Hartree-Fock, hybrid functionals, or many-body perturbation theory used in your run, please cite:

    Xinguo Ren, Patrick Rinke, Volker Blum, Juergen Wieferink, Alex Tkatchenko,
    Andrea Sanfilippo, Karsten Reuter, and Matthias Scheffler,
    'Resolution-of-identity approach to Hartree-Fock, hybrid density functionals,
    RPA, MP2, and GW with numeric atom-centered orbital basis functions'
    New Journal of Physics 14, 053020 (2012).
    http://doi.org/10.1088/1367-2630/14/5/053020


  The provided symmetry information was generated with SPGlib:

    Atsushi Togo, Yusuke Seto, Dimitar Pashov
    SPGlib 1.7.3 obtained from http://spglib.sourceforge.net
    Copyright (C) 2008 Atsushi Togo


  The DFPT (perturbation by an electric field) part of the code was used.
  Here is the corresponding reference:

    Honghui Shang, Nathaniel Raimbault, Mariana Rossi,
    Christian Carbogno, Patrick Rinke and Matthias Scheffler,
    'All-Electron, Real-Space Perturbation Theory for Homogeneous
    Electric Fields: Theory, Implementation, and Application within dft'
    New Journal of Physics, 20(7):073040, 2018


  The ELSI infrastructure was used in your run to solve the Kohn-Sham electronic structure.
  Please check out http://elsi-interchange.org to learn more.
  If scalability is important for your project, please acknowledge ELSI by citing:

    V. W-z. Yu, F. Corsetti, A. Garcia, W. P. Huhn, M. Jacquelin, W. Jia,
    B. Lange, L. Lin, J. Lu, W. Mi, A. Seifitokaldani, A. Vazquez-Mayagoitia,
    C. Yang, H. Yang, and V. Blum
    'ELSI: A unified software interface for Kohn-Sham electronic structure solvers'
    Computer Physics Communications 222, 267-285 (2018).
    http://doi.org/10.1016/j.cpc.2017.09.007


  For the real-space grid partitioning and parallelization used in this calculation, please cite:

    Ville Havu, Volker Blum, Paula Havu, and Matthias Scheffler,
    'Efficient O(N) integration for all-electron electronic structure calculation'
    'using numerically tabulated basis functions'
    Journal of Computational Physics 228, 8367-8379 (2009).
    http://doi.org/10.1016/j.jcp.2009.08.008


  The high-level electronic structure method used in your calculation
  employed our efficient localized resolution of identity for the Coulomb operator.
  Some calculations, especially large-scale hybrid density functional theory,
  are only possible thanks to this development. For this feature, please cite:

    Arvid Ihrig, Juergen Wieferink, Igor Ying Zhang, Matti Ropo, Xinguo Ren,
    Patrick Rinke, Matthias Scheffler, and Volker Blum,
    'Accurate localized resolution of identity approach for linear-scaling
    hybrid density functionals and for many-body perturbation theory'
    New Journal of Physics 117, 093020 (2015).
    http://doi.org/10.1088/1367-2630/17/9/093020

  Of course, there are many other important community references, e.g., those cited in the
  above references. Our list is limited to references that describe implementations in the
  FHI-aims code. The reason is purely practical (length of this list) - please credit others as well.

------------------------------------------------------------
          Leaving FHI-aims.
          Date     :  20220921, Time     :  124253.251

          Computational steps:
          | Number of self-consistency cycles          :           33
          | Number of SCF (re)initializations          :            1
          | Number of coupled perturbed self-consistency cycles          :            0
          | Number of CPSCF (re)initializations          :            0

          Detailed time accounting                     :  max(cpu_time)    wall_clock(cpu1)
          | Total time                                  :      510.008 s         515.325 s
          | Preparation time                            :        0.132 s           0.138 s
          | Boundary condition initalization            :        0.064 s           0.066 s
          | Grid partitioning                           :        0.188 s           0.191 s
          | Preloading free-atom quantities on grid     :        1.084 s           1.087 s
          | Free-atom superposition energy              :        0.160 s           0.163 s
          | Total time for integrations                 :       15.780 s          16.022 s
          | Product basis setup: Total time             :        0.000 s           0.000 s
          | Product basis: | 2-center integrations     :(       0.000 s)  (       0.000 s)
          | Product basis: | LVL 3-center & coefficient:(       0.000 s)  (       0.000 s)
          | Total time for solution of K.-S. equations  :        0.040 s           0.040 s
          | Total time for density update               :       27.120 s          27.492 s
          | Total time for mixing & preconditioning     :       16.272 s          16.436 s
          | Total time for Hartree multipole update     :        0.068 s           0.079 s
          | Total time for Hartree multipole sum        :       37.892 s          38.263 s
          | Total time for total energy evaluation      :        0.000 s           0.016 s
          | Total time first_order_DM                   :        0.000 s           0.013 s
          | Total time first_order_density              :       40.008 s          40.387 s
          | Total time first_order_potential            :       64.912 s          65.397 s
          | Total time first_order_H                    :      263.652 s         265.879 s
          | Total time solving of Sternheimer equations :        0.016 s           0.011 s
          | Total time for dielectric constant          :        0.000 s           0.000 s
          | Total time momentum matrix                  :        0.000 s           0.000 s

          Partial memory accounting:
          | Residual value for overall tracked memory usage across tasks:     0.000000 MB (should be 0.000000 MB)
          | Peak values for overall tracked memory usage:
          |   Minimum:        9.811 MB (on task 0 after allocating DFPT_pulay_mixing::pulay_mix::alphas)
          |   Maximum:        9.811 MB (on task 0 after allocating DFPT_pulay_mixing::pulay_mix::alphas)
          |   Average:        9.811 MB
          | Largest tracked array allocation:
          |   Minimum:        3.337 MB (DFPT_pulay_mixing::initialize_pulay_mixing::X_in_diffs on task 0)
          |   Maximum:        3.337 MB (DFPT_pulay_mixing::initialize_pulay_mixing::X_in_diffs on task 0)
          |   Average:        3.337 MB
          Note:  These values currently only include a subset of arrays which are explicitly tracked.
          The "true" memory usage will be greater.

          Have a nice day.
------------------------------------------------------------
