------------------------------------------------------------
          Invoking FHI-aims ...

          When using FHI-aims, please cite the following reference:

            Volker Blum, Ralf Gehrke, Felix Hanke, Paula Havu,
            Ville Havu, Xinguo Ren, Karsten Reuter, and Matthias Scheffler,
            'Ab Initio Molecular Simulations with Numeric Atom-Centered Orbitals',
            Computer Physics Communications 180, 2175-2196 (2009)

          In addition, many other developments in FHI-aims are likely important for
          your particular application. A partial list of references is given at the end of
          this file. Thank you for giving credit to the authors of these developments.

          For any questions about FHI-aims, please visit our slack channel at

            https://fhi-aims.slack.com

          and our main development and support site at

            https://aims-git.rz-berlin.mpg.de .

          The latter site, in particular, has a wiki to collect information, as well
          as an issue tracker to log discussions, suggest improvements, and report issues
          or bugs. https://aims-git.rz-berlin.mpg.de is also the main development site
          of the project and all new and updated code versions can be obtained there.
          Please send an email to aims-coordinators@fhi-berlin.mpg.de and we will add
          you to these sites. They are for you and everyone is welcome there.

------------------------------------------------------------



  Date     :  20220921, Time     :  130959.252
  Time zero on CPU 1             :   0.800000000000000E-02  s.
  Internal wall clock time zero  :           432997799.252  s.

  FHI-aims created a unique identifier for this run for later identification
  aims_uuid : 90EF72F5-4E71-44EC-ADA7-4DE24D4CDD0D

  Build configuration of the current instance of FHI-aims
  -------------------------------------------------------
  FHI-aims version      : 220619
  Commit number         : 84ea59f81
  CMake host system     : Linux-4.9.0-16-amd64
  CMake version         : 3.17.3
  Fortran compiler      : /opt/easybuild/software/impi/2017.3.196-iccifort-2017.4.196-GCC-6.4.0-2.28/bin64/mpiifort (Intel) version 17.0.4.20170411
  Fortran compiler flags: -O3 -ip -fp-model precise
  C compiler            : /opt/easybuild/software/icc/2017.4.196-GCC-6.4.0-2.28/compilers_and_libraries_2017.4.196/linux/bin/intel64/icc (Intel) version 17.0.4.20170411
  C compiler flags      : -O3 -ip -fp-model precise -std=gnu99
  Using MPI
  Using ScaLAPACK
  Using LibXC
  Using i-PI
  Using RLSY
  Linking against: /opt/easybuild/software/imkl/2017.3.196-iimpi-2017b/mkl/lib/intel64/libmkl_intel_lp64.so
                   /opt/easybuild/software/imkl/2017.3.196-iimpi-2017b/mkl/lib/intel64/libmkl_sequential.so
                   /opt/easybuild/software/imkl/2017.3.196-iimpi-2017b/mkl/lib/intel64/libmkl_core.so
                   /opt/easybuild/software/imkl/2017.3.196-iimpi-2017b/mkl/lib/intel64/libmkl_blacs_intelmpi_lp64.so
                   /opt/easybuild/software/imkl/2017.3.196-iimpi-2017b/mkl/lib/intel64/libmkl_scalapack_lp64.so

  Using        1 parallel tasks.
  Task        0 on host mpsd-hpc-ibm-059 reporting.

  Performing system and environment tests:
  | Environment variable OMP_NUM_THREADS correctly set to 1.
  | Checking for ScaLAPACK...
  | Testing pdtran()...
  | All pdtran() tests passed.

  Obtaining array dimensions for all initial allocations:
  
  -----------------------------------------------------------------------
  Parsing control.in (first pass over file, find array dimensions only).
  The contents of control.in will be repeated verbatim below
  unless switched off by setting 'verbatim_writeout .false.' .
  in the first line of control.in .
  -----------------------------------------------------------------------
  
  #########################################################################################
  #
  #  Volker Blum, 2017 : Test run input file control.in for simple H2O
  #
  #########################################################################################
  #
  #  Physical model
  #
    xc                 pbe
    spin               none
    relativistic       none
    charge             0.
  
    ri_density_restart         write
    ri_rho1 write
    ri_full_output .True.
    DFPT dielectric
    sc_accuracy_rho    1d-6
  #  use_calculate_fock_matrix_old .false.
  #  output cube total_density
    k_grid 1 1 1
    wave_threshold 1e-8
  
  # prodbas_threshold 1e-2
  #
  #  Relaxation
  #
  #  relax_geometry   bfgs 1.e-2
  #
  
  ################################################################################
  
  ################################################################################
  #
  #  FHI-aims code project
  #  VB, Fritz-Haber Institut, 2009
  #
  #  Suggested "light" defaults for O atom (to be pasted into control.in file)
  #  Be sure to double-check any results obtained with these settings for post-processing,
  #  e.g., with the "tight" defaults and larger basis sets.
  #
  ################################################################################
    species        O
  #     global species definitions
      nucleus             8
      mass                15.9994
  #
      l_hartree           6
  #
      cut_pot             4.0  2.0  1.0
      basis_dep_cutoff    1e-4
  #
      radial_base         36 7.0
      radial_multiplier   2
       angular_grids specified
        division   0.2659   50
        division   0.4451  110
        division   0.6052  194
        division   0.7543  302
        division   0.8014  434
  #      division   0.8507  590
  #      division   0.8762  770
  #      division   0.9023  974
  #      division   1.2339 1202
  #      outer_grid 974
        outer_grid 434
  ################################################################################
  #
  #  Definition of "minimal" basis
  #
  ################################################################################
  #     valence basis states
      valence      2  s   2.
      valence      2  p   4.
  #     ion occupancy
      ion_occ      2  s   1.
      ion_occ      2  p   3.
  ################################################################################
  #
  #  Suggested additional basis functions. For production calculations,
  #  uncomment them one after another (the most important basis functions are
  #  listed first).
  #
  #
  ################################################################################
  #  "First tier" - improvements: -699.05 meV to -159.38 meV
       hydro 2 p 1.8
       hydro 3 d 7.6
       hydro 3 s 6.4
  #  "Second tier" - improvements: -49.91 meV to -5.39 meV
       hydro 4 f 11.6
       hydro 3 p 6.2
       hydro 3 d 5.6
       hydro 5 g 17.6
       hydro 1 s 0.75
  #  "Third tier" - improvements: -2.83 meV to -0.50 meV
  #     ionic 2 p auto
  #     hydro 4 f 10.8
  #     hydro 4 d 4.7
  #     hydro 2 s 6.8
  #  "Fourth tier" - improvements: -0.40 meV to -0.12 meV
  #     hydro 3 p 5
  #     hydro 3 s 3.3
  #     hydro 5 g 15.6
  #     hydro 4 f 17.6
  #     hydro 4 d 14
  # Further basis functions - -0.08 meV and below
  #     hydro 3 s 2.1
  #     hydro 4 d 11.6
  #     hydro 3 p 16
  #     hydro 2 s 17.2
  ################################################################################
  #
  #  FHI-aims code project
  #  VB, Fritz-Haber Institut, 2009
  #
  #  Suggested "light" defaults for H atom (to be pasted into control.in file)
  #  Be sure to double-check any results obtained with these settings for post-processing,
  #  e.g., with the "tight" defaults and larger basis sets.
  #
  ################################################################################
    species        H
  #     global species definitions
      nucleus             1
      mass                1.00794
  #
      l_hartree           6
  #
      cut_pot             4.0  2.0  1.0
      basis_dep_cutoff    1e-4
  #
      radial_base         24 7.0
      radial_multiplier   2
      angular_grids       specified
        division   0.2421   50
        division   0.3822  110
        division   0.4799  194
        division   0.5341  302
        division   0.5626  434
  #      division   0.5922  590
  #      division   0.6542  770
  #      division   0.6868 1202
  #      outer_grid  770
        outer_grid  434
  ################################################################################
  #
  #  Definition of "minimal" basis
  #
  ################################################################################
  #     valence basis states
      valence      1  s   1.
  #     ion occupancy
      ion_occ      1  s   0.5
  ################################################################################
  #
  #  Suggested additional basis functions. For production calculations,
  #  uncomment them one after another (the most important basis functions are
  #  listed first).
  #
  #  Basis constructed for dimers: 0.5 A, 0.7 A, 1.0 A, 1.5 A, 2.5 A
  #
  ################################################################################
  #  "First tier" - improvements: -1014.90 meV to -62.69 meV
       hydro 2 s 2.1
       hydro 2 p 3.5
  #  "Second tier" - improvements: -12.89 meV to -1.83 meV
      hydro 1 s 0.85
      hydro 2 p 3.7
      hydro 2 s 1.2
      hydro 3 d 7
  #  "Third tier" - improvements: -0.25 meV to -0.12 meV
  #    hydro 4 f 11.2
  #    hydro 3 p 4.8
  #    hydro 4 d 9
  #    hydro 3 s 3.2
  #
  
  
  -----------------------------------------------------------------------
  Completed first pass over input file control.in .
  -----------------------------------------------------------------------
  
  
  -----------------------------------------------------------------------
  Parsing geometry.in (first pass over file, find array dimensions only).
  The contents of geometry.in will be repeated verbatim below
  unless switched off by setting 'verbatim_writeout .false.' .
  in the first line of geometry.in .
  -----------------------------------------------------------------------
  
  #=======================================================
  # FHI-aims file: qmdata/data/geoms/719.in
  # Created using the Atomic Simulation Environment (ASE)
  # Wed Sep 21 12:30:24 2022
  #=======================================================
  lattice_vector 5.0000000000000000 0.0000000000000000 0.0000000000000000
  lattice_vector 0.0000000000000000 5.0000000000000000 0.0000000000000000
  lattice_vector 0.0000000000000000 0.0000000000000000 5.0000000000000000
  atom 0.0914444300000000 0.0018402200000000 0.0051015800000000 O
  atom -0.7357757200000000 -0.7467878999999999 -0.0410480800000000 H
  atom -0.7156324400000000 0.7175799600000000 -0.0399243100000000 H
  
  -----------------------------------------------------------------------
  Completed first pass over input file geometry.in .
  -----------------------------------------------------------------------
  

  Basic array size parameters:
  | Number of species                 :        2
  | Number of atoms                   :        3
  | Number of lattice vectors         :        3
  | Max. basis fn. angular momentum   :        4
  | Max. atomic/ionic basis occupied n:        2
  | Max. number of basis fn. types    :        2
  | Max. radial fns per species/type  :        8
  | Max. logarithmic grid size        :     1301
  | Max. radial integration grid size :       73
  | Max. angular integration grid size:      434
  | Max. angular grid division number :        8
  | Radial grid for Hartree potential :     1301
  | Number of spin channels           :        1

------------------------------------------------------------
          Reading file control.in.
------------------------------------------------------------
  XC: Using PBE gradient-corrected functionals.
  Spin treatment: No spin polarisation.
  Non-relativistic treatment of kinetic energy.
  Charge =   0.000000E+00: Neutral system requested explicitly.
  DFPT calculation will begin after the DFT/HF calculation.
  Convergence accuracy of self-consistent charge density:  0.1000E-05
  Found k-point grid:         1         1         1
  Threshold value for wave function integration:  0.1000E-07
 
  Reading configuration options for species O                   .
  | Found nuclear charge :   8.0000
  | Found atomic mass :    15.9994000000000      amu
  | Found l_max for Hartree potential  :   6
  | Found cutoff potl. onset [A], width [A], scale factor :    4.00000    2.00000    1.00000
  | Threshold for basis-dependent cutoff potential is   0.100000E-03
  | Found data for basic radial integration grid :    36 points, outermost radius =    7.000 A
  | Found multiplier for basic radial grid :   2
  | Found angular grid specification: user-specified.
  | Specified grid contains     6 separate shells.
  | Check grid settings after all constraints further below.
  | Found free-atom valence shell :  2 s   2.000
  | Found free-atom valence shell :  2 p   4.000
  | No ionic wave fns used. Skipping ion_occ.
  | No ionic wave fns used. Skipping ion_occ.
  | Found hydrogenic basis function :  2 p   1.800
  | Found hydrogenic basis function :  3 d   7.600
  | Found hydrogenic basis function :  3 s   6.400
  | Found hydrogenic basis function :  4 f  11.600
  | Found hydrogenic basis function :  3 p   6.200
  | Found hydrogenic basis function :  3 d   5.600
  | Found hydrogenic basis function :  5 g  17.600
  | Found hydrogenic basis function :  1 s   0.750
  Species O                   : Missing cutoff potential type.
  Defaulting to exp(1/x)/(1-x)^2 type cutoff potential.
  Species O : No 'logarithmic' tag. Using default grid for free atom:
  | Default logarithmic grid data [bohr] : 0.1000E-03 0.1000E+03 0.1012E+01
  Species O : On-site basis accuracy parameter (for Gram-Schmidt orthonormalisation) not specified.
  Using default value basis_acc =  0.1000000E-03.
  Species O                   : Using default innermost maximum threshold i_radial=  2 for radial functions.
  Species O                   : Default cutoff onset for free atom density etc. : 0.40000000E+01 AA.
  Species O                   : Basic radial grid will be enhanced according to radial_multiplier =   2, to contain    73 grid points.
 
  Reading configuration options for species H                   .
  | Found nuclear charge :   1.0000
  | Found atomic mass :    1.00794000000000      amu
  | Found l_max for Hartree potential  :   6
  | Found cutoff potl. onset [A], width [A], scale factor :    4.00000    2.00000    1.00000
  | Threshold for basis-dependent cutoff potential is   0.100000E-03
  | Found data for basic radial integration grid :    24 points, outermost radius =    7.000 A
  | Found multiplier for basic radial grid :   2
  | Found angular grid specification: user-specified.
  | Specified grid contains     6 separate shells.
  | Check grid settings after all constraints further below.
  | Found free-atom valence shell :  1 s   1.000
  | No ionic wave fns used. Skipping ion_occ.
  | Found hydrogenic basis function :  2 s   2.100
  | Found hydrogenic basis function :  2 p   3.500
  | Found hydrogenic basis function :  1 s   0.850
  | Found hydrogenic basis function :  2 p   3.700
  | Found hydrogenic basis function :  2 s   1.200
  | Found hydrogenic basis function :  3 d   7.000
  Species H                   : Missing cutoff potential type.
  Defaulting to exp(1/x)/(1-x)^2 type cutoff potential.
  Species H : No 'logarithmic' tag. Using default grid for free atom:
  | Default logarithmic grid data [bohr] : 0.1000E-03 0.1000E+03 0.1012E+01
  Species H : On-site basis accuracy parameter (for Gram-Schmidt orthonormalisation) not specified.
  Using default value basis_acc =  0.1000000E-03.
  Species H                   : Using default innermost maximum threshold i_radial=  2 for radial functions.
  Species H                   : Default cutoff onset for free atom density etc. : 0.40000000E+01 AA.
  Species H                   : Basic radial grid will be enhanced according to radial_multiplier =   2, to contain    49 grid points.
 
  Finished reading input file 'control.in'.
 
------------------------------------------------------------


------------------------------------------------------------
          Reading geometry description geometry.in.
------------------------------------------------------------
  | The smallest distance between any two atoms is         1.07966837 AA.
  | The first atom of this pair is atom number                      1 .
  | The second atom of this pair is atom number                     3 .
  | Wigner-Seitz cell of the first atom image           0     0     0 .
  | (The Wigner-Seitz cell of the second atom is 0 0 0  by definition.)

  Symmetry information by spglib:
  | Precision set to  0.1E-04
  | Number of Operations  : 1
  | Space group           : 1
  | International         : P1
  | Schoenflies           : C1^1
  Input structure read successfully.
  The structure contains        3 atoms,  and a total of         10.000 electrons.

  Input geometry:
  | Unit cell:
  |        5.00000000        0.00000000        0.00000000
  |        0.00000000        5.00000000        0.00000000
  |        0.00000000        0.00000000        5.00000000
  | Atomic structure:
  |       Atom                x [A]            y [A]            z [A]
  |    1: Species O             0.09144443        0.00184022        0.00510158
  |    2: Species H            -0.73577572       -0.74678790       -0.04104808
  |    3: Species H            -0.71563244        0.71757996       -0.03992431

  Lattice parameters for 3D lattice (in Angstroms) :     5.000000    5.000000    5.000000
  Angle(s) between unit vectors (in degrees)       :    90.000000   90.000000   90.000000


  Quantities derived from the lattice vectors (in Angstrom^-1):
  | Reciprocal lattice vector 1:  1.256637  0.000000  0.000000
  | Reciprocal lattice vector 2:  0.000000  1.256637  0.000000
  | Reciprocal lattice vector 3:  0.000000  0.000000  1.256637
  | Unit cell volume                               :   0.125000E+03  Angstrom^3

  Fractional coordinates:
                         L1                L2                L3
       atom_frac         0.01828889        0.00036804        0.00102032  O
       atom_frac        -0.14715514       -0.14935758       -0.00820962  H
       atom_frac        -0.14312649        0.14351599       -0.00798486  H

 
  Finished reading input file 'geometry.in'.
 

 
  Consistency checks for stacksize environment parameter are next.
 
  | Maximum stacksize for task 0: unlimited
  | Current stacksize for task 0: unlimited
 
  Consistency checks for the contents of control.in are next.
 
  MPI_IN_PLACE appears to work with this MPI implementation.
  | Keeping use_mpi_in_place .true. (see manual).
  Explicit treatment of the Coulomb operator is needed, but the RI method is not specified.
  Coulomb operator: Defaulting to 'LVL fast' resolution of identity - RI_type = LVL_fast
  Species O: Using default value for prodbas_acc =   1.000000E-04.
  Species O: Using default value max_l_prodbas =    20.
  Species H: Using default value for prodbas_acc =   1.000000E-04.
  Species H: Using default value max_l_prodbas =    20.
  Target number of points in a grid batch is not set. Defaulting to  100
  Method for grid partitioning is not set. Defaulting to parallel hash+maxmin partitioning.
  Batch size limit is not set. Defaulting to    200
  By default, will store active basis functions for each batch.
  If in need of memory, prune_basis_once .false. can be used to disable this option.
  communication_type for Hartree potential was not specified.
  Defaulting to calc_hartree .
  Defaulting to Pulay charge density mixer.
  Pulay mixer: Number of relevant iterations not set.
  Defaulting to    8 iterations.
  Pulay mixer: Number of initial linear mixing iterations not set.
  Defaulting to    0 iterations.
  Work space size for distributed Hartree potential not set.
  Defaulting to   0.200000E+03 MB.
  Mixing parameter for charge density mixing has not been set.
  Using default: charge_mix_param =     0.0500.
  The mixing parameter will be adjusted in iteration number     2 of the first full s.c.f. cycle only.
  Algorithm-dependent basis array size parameters:
  | n_max_pulay                         :        8
  Maximum number of self-consistency iterations not provided.
  Presetting  1000 iterations.
  Presetting      1001 iterations before the initial mixing cycle
  is restarted anyway using the sc_init_iter criterion / keyword.
  Presetting a factor      1.000 between actual scf density residual
  and density convergence criterion sc_accuracy_rho below which sc_init_iter
  takes no effect.
  Calculation of forces was not defined in control.in. No forces will be calculated.
  Geometry relaxation not requested: no relaxation will be performed.
  No accuracy limit for integral partition fn. given. Defaulting to  0.1000E-14.
  No occupation type (smearing scheme) given. Defaulting to Gaussian broadening, width =  0.1000E-01 eV.
  The width will be adjusted in iteration number     2 of the first full s.c.f. cycle only.
  S.C.F. convergence parameters will be adjusted in iteration number     2 of the first full s.c.f. cycle only.
  No accuracy for occupation numbers given. Defaulting to  0.1000E-12.
  No threshold value for occupation numbers given. Defaulting to  0.0000E+00.
  No accuracy for fermi level given. Defaulting to  0.1000E-19.
  Maximum # of iterations to find E_F not set. Defaulting to  200.
  Preferred method for the eigenvalue solver ('KS_method') not specified in 'control.in'.
  Defaulting to serial version LAPACK (via ELSI).
  Will not use alltoall communication since running on < 1024 CPUs.
  Threshold for basis singularities not set.
  Default threshold for basis singularities:  0.1000E-04
  partition_type (choice of integration weights) for integrals was not specified.
  | Using a version of the partition function of Stratmann and coworkers ('stratmann_sparse').
  | At each grid point, the set of atoms used to build the partition table is smoothly restricted to
  | only those atoms whose free-atom density would be non-zero at that grid point.
  Partitioning for Hartree potential was not defined. Using partition_type for integrals.
  | Adjusted default value of keyword multip_moments_threshold to:       0.10000000E-11
  | This value may affect high angular momentum components of the Hartree potential in periodic systems.
  Angular momentum expansion for Kerker preconditioner not set explicitly.
  | Using default value of   0
  No explicit requirement for turning off preconditioner.
  | By default, it will be turned off when the charge convergence reaches
  | sc_accuracy_rho  =   0.100000E-05
  No special mixing parameter while Kerker preconditioner is on.
  Using default: charge_mix_param =     0.0500.
  Threshold for auxiliary basis singularities not set.
  Default threshold for auxiliary basis singularities:  0.1000E-04
  No q(lm)/r^(l+1) cutoff set for long-range Hartree potential.
  | Using default value of  0.100000E-09 .
  | Verify using the multipole_threshold keyword.
  Defaulting to new monopole extrapolation.
  Density update method: automatic selection selected.
  Using density matrix based charge density update.
  Using density matrix based charge density update.
  Using packed matrix style: index .
  Defaulting to use time-reversal symmetry for k-point grid.
  Charge integration errors on the 3D integration grid will be compensated
  by explicit normalization and distribution of residual charges.
  Use the "compensate_multipole_errors" flag to change this behaviour.
  Default to 1D ("use_logsbt") integrations for auxiliary 2-center integrals.
  Default onset of logarithmic r-grid for SBT is -38.000000000000
  Default onset of logarithmic k-grid for SBT is -25.000000000000
  Default range of logarithmic r- and k-grid for SBT is  45.000000000000
  Default number of logarithmic r- and k-grid for SBT is   4096
  Set 'collect_eigenvectors' to be '.true.' for all serial calculations. This is mandatory.
  Set 'collect_eigenvectors' to be '.true.' for KS_method lapack_fast and serial.
 
  Consistency checks for the contents of geometry.in are next.
 

  Range separation radius for Ewald summation (hartree_convergence_parameter):      5.00000000 bohr.
  Number of empty states per atom not set in control.in .
  | Since you are using a method that relies on the unoccupied spectrum
  | (MP2,GW,RPA et al.), will use the full Hamiltonian size (see below)
  | as the max. possible number of states (occupied plus empty).

  Structure-dependent array size parameters: 
  | Maximum number of distinct radial functions  :       18
  | Maximum number of basis functions            :       69
  | Number of Kohn-Sham states (occupied + empty):       69
------------------------------------------------------------

------------------------------------------------------------
          Preparing all fixed parts of the calculation.
------------------------------------------------------------
  Determining machine precision:
    2.225073858507201E-308
  Setting up grids for atomic and cluster calculations.

  Creating wave function, potential, and density for free atoms.
  Runtime choices for atomic solver:
  | atomic solver xc        : PBE
  | compute density gradient: 1
  | compute kinetic density : F

  Species: O

  List of occupied orbitals and eigenvalues:
    n    l              occ      energy [Ha]    energy [eV]
    1    0           2.0000       -18.898576      -514.2564
    2    0           2.0000        -0.878795       -23.9132
    2    1           4.0000        -0.332075        -9.0362


  Species: H

  List of occupied orbitals and eigenvalues:
    n    l              occ      energy [Ha]    energy [eV]
    1    0           1.0000        -0.238382        -6.4867


  Adding cutoff potential to free-atom effective potential.
  Creating fixed part of basis set: Ionic, confined, hydrogenic.
 
  O                    hydrogenic:
 
  List of hydrogenic basis orbitals: 
    n    l      effective z      eigenvalue [eV]  inner max. [A]     outer max. [A]     outer radius [A]   
    2    1         1.800000       -11.0118           1.178562           1.178562           5.567066
    3    2         7.600000       -87.3182           0.624125           0.624125           3.764702
    3    0         6.400000       -61.9209           0.061167           1.081902           4.522403
    4    3        11.600000      -114.4238           0.731631           0.731631           3.811008
    3    1         6.200000       -58.1113           0.255680           1.030270           4.522403
    3    2         5.600000       -47.4081           0.847233           0.847233           4.578029
    5    4        17.600000      -168.5799           0.749740           0.749740           3.629133
    1    0         0.750000        -7.6499           0.705284           0.705284           5.567066
 
 
  H                    hydrogenic:
 
  List of hydrogenic basis orbitals: 
    n    l      effective z      eigenvalue [eV]  inner max. [A]     outer max. [A]     outer radius [A]   
    2    0         2.100000       -14.9965           0.193243           1.317208           5.573719
    2    1         3.500000       -41.6672           0.602369           0.602369           4.259334
    1    0         0.850000        -9.8292           0.624871           0.624871           5.573719
    2    1         3.700000       -46.5653           0.573622           0.573622           4.105953
    2    0         1.200000        -4.5995           0.334980           2.228188           5.642276
    3    2         7.000000       -74.0753           0.680699           0.680699           3.958095
 
  Creating atomic-like basis functions for current effective potential.

  Species O                   :

  List of atomic basis orbitals and eigenvalues:
    n    l      energy [Ha]    energy [eV]    outer radius [A]
    1    0       -18.898576      -514.2564       1.807907
    2    0        -0.878795       -23.9132       5.366593
    2    1        -0.332075        -9.0362       5.499423


  Species H                   :

  List of atomic basis orbitals and eigenvalues:
    n    l      energy [Ha]    energy [eV]    outer radius [A]
    1    0        -0.238382        -6.4867       5.573719

  Assembling full basis from fixed parts.
  | Species O :   atomic orbital   1 s accepted.
  | Species O :    hydro orbital   3 s accepted.
  | Species O :   atomic orbital   2 s accepted.
  | Species O :    hydro orbital   1 s accepted.
  | Species O :    hydro orbital   3 p accepted.
  | Species O :   atomic orbital   2 p accepted.
  | Species O :    hydro orbital   2 p accepted.
  | Species O :    hydro orbital   3 d accepted.
  | Species O :    hydro orbital   3 d accepted.
  | Species O :    hydro orbital   4 f accepted.
  | Species O :    hydro orbital   5 g accepted.
  | Species H :   atomic orbital   1 s accepted.
  | Species H :    hydro orbital   2 s accepted.
  | Species H :    hydro orbital   1 s accepted.
  | Species H :    hydro orbital   2 s accepted.
  | Species H :    hydro orbital   2 p accepted.
  | Species H :    hydro orbital   2 p accepted.
  | Species H :    hydro orbital   3 d accepted.
 
  Basis size parameters after reduction:
  | Total number of radial functions:       18
  | Total number of basis functions :       69
 
  Per-task memory consumption for arrays in subroutine allocate_ext:
  |           4.499020MB.
  Testing on-site integration grid accuracy.
  |  Species  Function  <phi|h_atom|phi> (log., in eV)  <phi|h_atom|phi> (rad., in eV)
           1        1               -514.2564144315               -514.2564099626
           1        2                 15.1726678541                 15.1726530877
           1        3                -21.5447785304                -21.5447874973
           1        4                 14.4944558459                 14.4944698284
           1        5                 20.8882174564                 20.8882178906
           1        6                 -2.4850315909                 -2.4850322289
           1        7                 13.8600193195                 13.8599826966
           1        8                 45.8243383616                 45.8243383675
           1        9                 52.1840606465                 52.1840622440
           1       10                 85.4074185510                 85.4074185819
           1       11                142.0983717302                142.0983717339
           2       12                 -6.4869821809                 -6.4870742227
           2       13                 13.5044133542                 13.5041049177
           2       14                 32.7854418792                 32.7779770519
           2       15                 33.7995553101                 33.7152624900 ***
           2       16                 28.8558651799                 28.8558652046
           2       17                 59.6361831893                 59.6362535845
           2       18                 60.2733718049                 60.2733715484
 * Note: Onsite integrals marked "***" above are less accurate than
 * onsite_accuracy_threshold =    0.03000 eV. Usually, this is harmless.
 * When in doubt, tighten the "radial" and/or "radial_multiplier" flags to check.

  Preparing densities etc. for the partition functions (integrals / Hartree potential).

  Preparations completed.
  max(cpu_time)          :      0.132 s.
  Wall clock time (cpu1) :      0.137 s.
------------------------------------------------------------

  Initializing index lists of integration centers etc. from given atomic structure:
  Mapping all atomic coordinates to central unit cell.

  Initializing the k-points
  Using symmetry for reducing the k-points
  | k-points reduced from:        1 to        1
  | Number of k-points                             :         1
  | Consuming          0 KiB for k_phase_exx.
  The eigenvectors in the calculations are REAL.
  | K-points in task   0:         1
  | Number of basis functions in the Hamiltonian integrals :      1545
  | Number of basis functions in a single unit cell        :        69
  | Number of centers in hartree potential         :       663
  | Number of centers in hartree multipole         :       243
  | Number of centers in electron density summation:       191
  | Number of centers in basis integrals           :       207
  | Number of centers in integrals                 :        81
  | Number of centers in hamiltonian               :       191
  | Consuming          1 KiB for k_phase.
  | Number of super-cells (origin) [n_cells]                     :        1331
  | Number of super-cells (after PM_index) [n_cells]             :          74
  | Number of super-cells in hamiltonian [n_cells_in_hamiltonian]:          74
  | Size of matrix packed + index [n_hamiltonian_matrix_size] :       62416
  | Size of matrix packed + index (no_symmetry):      122834

------------------------------------------------------------
          Begin self-consistency loop: Initialization.

          Date     :  20220921, Time     :  130959.483
------------------------------------------------------------
  | Estimated reciprocal-space cutoff momentum G_max:         1.90186217 bohr^-1 .
  | Reciprocal lattice points for long-range Hartree potential:      92
  Partitioning the integration grid into batches with parallel hashing+maxmin method.
  | Number of batches:      511
  | Maximal batch size:     181
  | Minimal batch size:      89
  | Average batch size:      91.761
  | Standard deviation of batch sizes:       4.225

  Integration load balanced across     1 MPI tasks.
  Work distribution over tasks is as follows:
  Task     0 has      46890 integration points.
  Initializing partition tables, free-atom densities, potentials, etc. across the integration grid (initialize_grid_storage).
  | initialize_grid_storage: Actual outermost partition radius vs. multipole_radius_free
  | (-- VB: in principle, multipole_radius_free should be larger, hence this output)
  | Species        1: Confinement radius =              6.000000000000000 AA, multipole_radius_free =              6.064445521808699 AA.
  | Species        1: outer_partition_radius set to              6.064445521808699 AA .
  | Species        2: Confinement radius =              6.000000000000000 AA, multipole_radius_free =              6.071692442739658 AA.
  | Species        2: outer_partition_radius set to              6.071692442739658 AA .
  | The sparse table of interatomic distances needs        417.81 kbyte instead of       342.79 kbyte of memory.
  | Using the partition_type stratmann_smoother will reduce your memory usage.
  | Net number of integration points:    46890
  | of which are non-zero points    :    37641
  | Numerical average free-atom electrostatic potential    :     -1.29049429 eV
  Renormalizing the initial density to the exact electron count on the 3D integration grid.
  | Initial density: Formal number of electrons (from input files) :      10.0000000000
  | Integrated number of electrons on 3D grid     :      10.0000078037
  | Charge integration error                      :       0.0000078037
  | Normalization factor for density and gradient :       0.9999992196
  Renormalizing the free-atom superposition density to the exact electron count on the 3D integration grid.
  | Formal number of electrons (from input files) :      10.0000000000
  | Integrated number of electrons on 3D grid     :      10.0000078037
  | Charge integration error                      :       0.0000078037
  | Normalization factor for density and gradient :       0.9999992196
  Obtaining max. number of non-zero basis functions in each batch (get_n_compute_maxes).
  | Maximal number of non-zero basis functions:      422 in task     0
  Allocating        0.036 MB for KS_eigenvector
  Integrating Hamiltonian matrix: batch-based integration.
  Time summed over all CPUs for integration: real work        1.043 s, elapsed        1.043 s
  Integrating overlap matrix.
  Time summed over all CPUs for integration: real work        0.623 s, elapsed        0.623 s

  Updating Kohn-Sham eigenvalues and eigenvectors using ELSI and the (modified) LAPACK eigensolver.
  Singularity check in k-point 1, task 0 (analysis for other k-points/tasks may follow below):
  Overlap matrix is not singular
  | Lowest and highest eigenvalues :  0.4112E-03,  0.6955E+01
  Finished singularity check of overlap matrix
  | Time :     0.001 s
  Starting LAPACK eigensolver
  Finished Cholesky decomposition
  | Time :     0.000 s
  Finished transformation to standard eigenproblem
  | Time :     0.000 s
  Finished solving standard eigenproblem
  | Time :     0.001 s
  Finished back-transformation of eigenvectors
  | Time :     0.000 s

  Obtaining occupation numbers and electronic chemical potential using ELSI.
  | Note that, for insulating systems, the printed 'chemical potential' value is not uniquely defined.
  | It can be anywhere in the energy gap, as long as it correctly separates occupied and unoccupied states.
  | In systems with a gap, the physically relevant chemical potential is the VBM or HOMO.

  | Chemical potential (Fermi level):    -9.10221200 eV
  Writing Kohn-Sham eigenvalues.

  State    Occupation    Eigenvalue [Ha]    Eigenvalue [eV]
      1       2.00000         -18.965375         -516.07410
      2       2.00000          -1.030010          -28.02801
      3       2.00000          -0.521036          -14.17811
      4       2.00000          -0.501993          -13.65991
      5       2.00000          -0.404643          -11.01090
      6       0.00000          -0.128992           -3.51006
      7       0.00000           0.004931            0.13419
      8       0.00000           0.058403            1.58921
      9       0.00000           0.187956            5.11454
     10       0.00000           0.195875            5.33003
     11       0.00000           0.214991            5.85022
     12       0.00000           0.306069            8.32856
     13       0.00000           0.436455           11.87656
     14       0.00000           0.443727           12.07443
     15       0.00000           0.464285           12.63385
     16       0.00000           0.468504           12.74865
     17       0.00000           0.515729           14.03370
     18       0.00000           0.569908           15.50799
     19       0.00000           0.866230           23.57133
     20       0.00000           0.895432           24.36595
     21       0.00000           0.995154           27.07951
     22       0.00000           1.004877           27.34410
     23       0.00000           1.083727           29.48972
     24       0.00000           1.154993           31.42895
     25       0.00000           1.365537           37.15814
     26       0.00000           1.409637           38.35818
     27       0.00000           1.434270           39.02847
     28       0.00000           1.825058           49.66235
     29       0.00000           1.910666           51.99187
     30       0.00000           1.960970           53.36072
     31       0.00000           2.166833           58.96254
     32       0.00000           2.270905           61.79446
     33       0.00000           2.365342           64.36424
     34       0.00000           2.390450           65.04746
     35       0.00000           2.427704           66.06118
     36       0.00000           2.526292           68.74392
     37       0.00000           2.757711           75.04114
     38       0.00000           2.823069           76.81963
     39       0.00000           2.919907           79.45470
     40       0.00000           3.257274           88.63495
     41       0.00000           3.281748           89.30092
     42       0.00000           3.341626           90.93027
     43       0.00000           3.361255           91.46440
     44       0.00000           3.438487           93.56600
     45       0.00000           3.496259           95.13805
     46       0.00000           3.541217           96.36141
     47       0.00000           3.578225           97.36845
     48       0.00000           3.768351          102.54206
     49       0.00000           3.821380          103.98505
     50       0.00000           4.032733          109.73625
     51       0.00000           4.509941          122.72175
     52       0.00000           4.604743          125.30143
     53       0.00000           4.895099          133.20243
     54       0.00000           4.994575          135.90931
     55       0.00000           5.031311          136.90893
     56       0.00000           5.069467          137.94723
     57       0.00000           5.398594          146.90321
     58       0.00000           5.558871          151.26458
     59       0.00000           5.563978          151.40355
     60       0.00000           5.696164          155.00052
     61       0.00000           5.777100          157.20290
     62       0.00000           6.203696          168.81116
     63       0.00000           6.715012          182.72478
     64       0.00000           6.809782          185.30359
     65       0.00000           6.988723          190.17284
     66       0.00000           7.200272          195.92937
     67       0.00000           7.408914          201.60680
     68       0.00000           7.999493          217.67728
     69       0.00000           8.134079          221.33955

  Highest occupied state (VBM) at    -11.01089626 eV (relative to internal zero)
  | Occupation number:      2.00000000
  | K-point:       1 at    0.000000    0.000000    0.000000 (in units of recip. lattice)

  Lowest unoccupied state (CBM) at    -3.51006348 eV (relative to internal zero)
  | Occupation number:      0.00000000
  | K-point:       1 at    0.000000    0.000000    0.000000 (in units of recip. lattice)

  ESTIMATED overall HOMO-LUMO gap:      7.50083278 eV between HOMO at k-point 1 and LUMO at k-point 1
  The gap value is above 0.2 eV. Unless you are using a very sparse k-point grid,
  this system is most likely an insulator or a semiconductor.
  Calculating total energy contributions from superposition of free atom densities.

  Total energy components:
  | Sum of eigenvalues            :         -42.84611281 Ha       -1165.90204996 eV
  | XC energy correction          :          -8.96513878 Ha        -243.95383839 eV
  | XC potential correction       :          11.52473435 Ha         313.60397763 eV
  | Free-atom electrostatic energy:         -36.12797943 Ha        -983.09233951 eV
  | Hartree energy correction     :           0.00000000 Ha           0.00000000 eV
  | Entropy correction            :           0.00000000 Ha           0.00000000 eV
  | ---------------------------
  | Total energy                  :         -76.41449667 Ha       -2079.34425023 eV
  | Total energy, T -> 0          :         -76.41449667 Ha       -2079.34425023 eV  <-- do not rely on this value for anything but (periodic) metals
  | Electronic free energy        :         -76.41449667 Ha       -2079.34425023 eV

  Derived energy quantities:
  | Kinetic energy                :          75.48219227 Ha        2053.97495681 eV
  | Electrostatic energy          :        -142.93155016 Ha       -3889.36536866 eV
  | Energy correction for multipole
  | error in Hartree potential    :           0.00000000 Ha           0.00000000 eV
  | Sum of eigenvalues per atom                           :        -388.63401665 eV
  | Total energy (T->0) per atom                          :        -693.11475008 eV  <-- do not rely on this value for anything but (periodic) metals
  | Electronic free energy per atom                       :        -693.11475008 eV
  Initialize hartree_potential_storage
  Max. number of atoms included in rho_multipole:            3

  End scf initialization - timings             :  max(cpu_time)    wall_clock(cpu1)
  | Time for scf. initialization                :        3.080 s           3.144 s
  | Boundary condition initialization           :        0.068 s           0.067 s
  | Integration                                 :        1.636 s           1.669 s
  | Solution of K.-S. eqns.                     :        0.004 s           0.004 s
  | Grid partitioning                           :        0.188 s           0.191 s
  | Preloading free-atom quantities on grid     :        1.092 s           1.117 s
  | Free-atom superposition energy              :        0.160 s           0.158 s
  | Total energy evaluation                     :        0.000 s           0.001 s

  Partial memory accounting:
  | Current value for overall tracked memory usage:
  |   Minimum:        1.227 MB (on task 0)
  |   Maximum:        1.227 MB (on task 0)
  |   Average:        1.227 MB
  | Peak value for overall tracked memory usage:
  |   Minimum:        4.344 MB (on task 0 after allocating wave)
  |   Maximum:        4.344 MB (on task 0 after allocating wave)
  |   Average:        4.344 MB
  | Largest tracked array allocation so far:
  |   Minimum:        1.359 MB (hamiltonian_shell on task 0)
  |   Maximum:        1.359 MB (hamiltonian_shell on task 0)
  |   Average:        1.359 MB
  Note:  These values currently only include a subset of arrays which are explicitly tracked.
  The "true" memory usage will be greater.
------------------------------------------------------------
  Evaluating new KS density using the density matrix
  Evaluating density matrix
  Time summed over all CPUs for getting density from density matrix: real work        1.907 s, elapsed        1.907 s
  Integration grid: deviation in total charge (<rho> - N_e) =  -4.263256E-14

  Time for density update prior                :  max(cpu_time)    wall_clock(cpu1)
  | self-consistency iterative process          :        1.884 s           1.912 s

------------------------------------------------------------
          Begin self-consistency iteration #    1

  Date     :  20220921, Time     :  131004.541
------------------------------------------------------------
  Pulay mixing of updated and previous charge densities.
  Renormalizing the density to the exact electron count on the 3D integration grid.
  | Formal number of electrons (from input files) :      10.0000000000
  | Integrated number of electrons on 3D grid     :       9.9996303119
  | Charge integration error                      :      -0.0003696881
  | Normalization factor for density and gradient :       1.0000369702

  Evaluating partitioned Hartree potential by multipole expansion.
  | Original multipole sum: apparent total charge =   0.751461E-14
  | Sum of charges compensated after spline to logarithmic grids =   0.860795E-07
  | Analytical far-field extrapolation by fixed multipoles:
  | Hartree multipole sum: apparent total charge =   0.750846E-14
  Summing up the Hartree potential.
  Time summed over all CPUs for potential: real work        2.383 s, elapsed        2.383 s
  | RMS charge density error from multipole expansion :   0.890076E-04
  | Average real-space part of the electrostatic potential :      0.00828346 eV

  Integrating Hamiltonian matrix: batch-based integration.
  Time summed over all CPUs for integration: real work        1.075 s, elapsed        1.075 s

  Updating Kohn-Sham eigenvalues and eigenvectors using ELSI and the (modified) LAPACK eigensolver.
  Starting LAPACK eigensolver
  Finished Cholesky decomposition
  | Time :     0.000 s
  Finished transformation to standard eigenproblem
  | Time :     0.001 s
  Finished solving standard eigenproblem
  | Time :     0.001 s
  Finished back-transformation of eigenvectors
  | Time :     0.000 s

  Obtaining occupation numbers and electronic chemical potential using ELSI.
  | Note that, for insulating systems, the printed 'chemical potential' value is not uniquely defined.
  | It can be anywhere in the energy gap, as long as it correctly separates occupied and unoccupied states.
  | In systems with a gap, the physically relevant chemical potential is the VBM or HOMO.

  | Chemical potential (Fermi level):    -8.73350401 eV
  Writing Kohn-Sham eigenvalues.

  State    Occupation    Eigenvalue [Ha]    Eigenvalue [eV]
      1       2.00000         -18.939323         -515.36520
      2       2.00000          -1.017696          -27.69292
      3       2.00000          -0.510641          -13.89526
      4       2.00000          -0.490394          -13.34429
      5       2.00000          -0.391227          -10.64582
      6       0.00000          -0.127275           -3.46334
      7       0.00000           0.008572            0.23326
      8       0.00000           0.061010            1.66016
      9       0.00000           0.190932            5.19552
     10       0.00000           0.197024            5.36130
     11       0.00000           0.217107            5.90779
     12       0.00000           0.307453            8.36622
     13       0.00000           0.438657           11.93647
     14       0.00000           0.446128           12.13977
     15       0.00000           0.466688           12.69922
     16       0.00000           0.471037           12.81757
     17       0.00000           0.518538           14.11014
     18       0.00000           0.571001           15.53773
     19       0.00000           0.867391           23.60290
     20       0.00000           0.898567           24.45126
     21       0.00000           0.998864           27.18048
     22       0.00000           1.009878           27.48017
     23       0.00000           1.085785           29.54571
     24       0.00000           1.159408           31.54910
     25       0.00000           1.374567           37.40386
     26       0.00000           1.420022           38.64077
     27       0.00000           1.440489           39.19769
     28       0.00000           1.831873           49.84779
     29       0.00000           1.913318           52.06402
     30       0.00000           1.964955           53.46916
     31       0.00000           2.171830           59.09850
     32       0.00000           2.274186           61.88376
     33       0.00000           2.371810           64.54023
     34       0.00000           2.395215           65.17711
     35       0.00000           2.434755           66.25305
     36       0.00000           2.529943           68.84326
     37       0.00000           2.763842           75.20797
     38       0.00000           2.825380           76.88251
     39       0.00000           2.929150           79.70623
     40       0.00000           3.264230           88.82423
     41       0.00000           3.286773           89.43766
     42       0.00000           3.347547           91.09139
     43       0.00000           3.369798           91.69686
     44       0.00000           3.441633           93.65160
     45       0.00000           3.499736           95.23266
     46       0.00000           3.550525           96.61471
     47       0.00000           3.581904           97.46857
     48       0.00000           3.777412          102.78862
     49       0.00000           3.827870          104.16164
     50       0.00000           4.038126          109.88299
     51       0.00000           4.519128          122.97172
     52       0.00000           4.611990          125.49864
     53       0.00000           4.902140          133.39401
     54       0.00000           5.000472          136.06977
     55       0.00000           5.038635          137.10824
     56       0.00000           5.077108          138.15515
     57       0.00000           5.403899          147.04758
     58       0.00000           5.567840          151.50863
     59       0.00000           5.570513          151.58137
     60       0.00000           5.705098          155.24363
     61       0.00000           5.785804          157.43974
     62       0.00000           6.212401          169.04803
     63       0.00000           6.721403          182.89868
     64       0.00000           6.819147          185.55844
     65       0.00000           6.998278          190.43282
     66       0.00000           7.206575          196.10089
     67       0.00000           7.417165          201.83133
     68       0.00000           8.008969          217.93514
     69       0.00000           8.141946          221.55363

  Highest occupied state (VBM) at    -10.64582031 eV (relative to internal zero)
  | Occupation number:      2.00000000
  | K-point:       1 at    0.000000    0.000000    0.000000 (in units of recip. lattice)

  Lowest unoccupied state (CBM) at    -3.46333575 eV (relative to internal zero)
  | Occupation number:      0.00000000
  | K-point:       1 at    0.000000    0.000000    0.000000 (in units of recip. lattice)

  ESTIMATED overall HOMO-LUMO gap:      7.18248456 eV between HOMO at k-point 1 and LUMO at k-point 1
  The gap value is above 0.2 eV. Unless you are using a very sparse k-point grid,
  this system is most likely an insulator or a semiconductor.

  Total energy components:
  | Sum of eigenvalues            :         -42.69856167 Ha       -1161.88697926 eV
  | XC energy correction          :          -8.98193887 Ha        -244.41099201 eV
  | XC potential correction       :          11.54663224 Ha         314.19984950 eV
  | Free-atom electrostatic energy:         -36.12797943 Ha        -983.09233951 eV
  | Hartree energy correction     :          -0.14114397 Ha          -3.84072292 eV
  | Entropy correction            :           0.00000000 Ha           0.00000000 eV
  | ---------------------------
  | Total energy                  :         -76.40299170 Ha       -2079.03118421 eV
  | Total energy, T -> 0          :         -76.40299170 Ha       -2079.03118421 eV  <-- do not rely on this value for anything but (periodic) metals
  | Electronic free energy        :         -76.40299170 Ha       -2079.03118421 eV

  Derived energy quantities:
  | Kinetic energy                :          75.58399636 Ha        2056.74518711 eV
  | Electrostatic energy          :        -143.00504920 Ha       -3891.36537930 eV
  | Energy correction for multipole
  | error in Hartree potential    :          -0.00006670 Ha          -0.00181502 eV
  | Sum of eigenvalues per atom                           :        -387.29565975 eV
  | Total energy (T->0) per atom                          :        -693.01039474 eV  <-- do not rely on this value for anything but (periodic) metals
  | Electronic free energy per atom                       :        -693.01039474 eV
  Evaluating new KS density using the density matrix
  Evaluating density matrix
  Time summed over all CPUs for getting density from density matrix: real work        1.893 s, elapsed        1.893 s
  Integration grid: deviation in total charge (<rho> - N_e) =   3.019807E-14

  Self-consistency convergence accuracy:
  | Change of charge density      :  0.2784E+00
  | Change of unmixed KS density  :  0.9090E+01
  | Change of sum of eigenvalues  :  0.4015E+01 eV
  | Change of total energy        :  0.3131E+00 eV


------------------------------------------------------------
  End self-consistency iteration #     1       :  max(cpu_time)    wall_clock(cpu1)
  | Time for this iteration                     :        6.576 s           6.675 s
  | Charge density update                       :        1.864 s           1.895 s
  | Density mixing & preconditioning            :        1.276 s           1.278 s
  | Hartree multipole update                    :        0.008 s           0.006 s
  | Hartree multipole summation                 :        2.380 s           2.412 s
  | Integration                                 :        1.044 s           1.077 s
  | Solution of K.-S. eqns.                     :        0.000 s           0.002 s
  | Total energy evaluation                     :        0.000 s           0.001 s

  Partial memory accounting:
  | Current value for overall tracked memory usage:
  |   Minimum:        1.227 MB (on task 0)
  |   Maximum:        1.227 MB (on task 0)
  |   Average:        1.227 MB
  | Peak value for overall tracked memory usage:
  |   Minimum:        6.083 MB (on task 0 after allocating gradient_basis_wave)
  |   Maximum:        6.083 MB (on task 0 after allocating gradient_basis_wave)
  |   Average:        6.083 MB
  | Largest tracked array allocation so far:
  |   Minimum:        1.748 MB (gradient_basis_wave on task 0)
  |   Maximum:        1.748 MB (gradient_basis_wave on task 0)
  |   Average:        1.748 MB
  Note:  These values currently only include a subset of arrays which are explicitly tracked.
  The "true" memory usage will be greater.
------------------------------------------------------------

------------------------------------------------------------
          Begin self-consistency iteration #    2

  Date     :  20220921, Time     :  131011.219
------------------------------------------------------------
  Pulay mixing of updated and previous charge densities.
  Renormalizing the density to the exact electron count on the 3D integration grid.
  | Formal number of electrons (from input files) :      10.0000000000
  | Integrated number of electrons on 3D grid     :       9.9972838555
  | Charge integration error                      :      -0.0027161445
  | Normalization factor for density and gradient :       1.0002716882

  Evaluating partitioned Hartree potential by multipole expansion.
  | Original multipole sum: apparent total charge =  -0.549636E-13
  | Sum of charges compensated after spline to logarithmic grids =   0.788736E-06
  | Analytical far-field extrapolation by fixed multipoles:
  | Hartree multipole sum: apparent total charge =  -0.551604E-13
  Summing up the Hartree potential.
  Time summed over all CPUs for potential: real work        2.726 s, elapsed        2.726 s
  | RMS charge density error from multipole expansion :   0.738744E-03
  | Average real-space part of the electrostatic potential :      0.06626511 eV

  Integrating Hamiltonian matrix: batch-based integration.
  Time summed over all CPUs for integration: real work        1.037 s, elapsed        1.037 s

  Updating Kohn-Sham eigenvalues and eigenvectors using ELSI and the (modified) LAPACK eigensolver.
  Starting LAPACK eigensolver
  Finished Cholesky decomposition
  | Time :     0.000 s
  Finished transformation to standard eigenproblem
  | Time :     0.000 s
  Finished solving standard eigenproblem
  | Time :     0.001 s
  Finished back-transformation of eigenvectors
  | Time :     0.000 s

  Obtaining occupation numbers and electronic chemical potential using ELSI.
  | Note that, for insulating systems, the printed 'chemical potential' value is not uniquely defined.
  | It can be anywhere in the energy gap, as long as it correctly separates occupied and unoccupied states.
  | In systems with a gap, the physically relevant chemical potential is the VBM or HOMO.

  | Chemical potential (Fermi level):    -6.27059614 eV
  Highest occupied state (VBM) at     -8.25493829 eV (relative to internal zero)
  | Occupation number:      2.00000000
  | K-point:       1 at    0.000000    0.000000    0.000000 (in units of recip. lattice)

  Lowest unoccupied state (CBM) at    -3.13104624 eV (relative to internal zero)
  | Occupation number:      0.00000000
  | K-point:       1 at    0.000000    0.000000    0.000000 (in units of recip. lattice)

  ESTIMATED overall HOMO-LUMO gap:      5.12389205 eV between HOMO at k-point 1 and LUMO at k-point 1
  The gap value is above 0.2 eV. Unless you are using a very sparse k-point grid,
  this system is most likely an insulator or a semiconductor.

  Checking to see if s.c.f. parameters should be adjusted.
  The system likely has a gap. Increased the default Pulay mixing parameter (charge_mix_param). Value:   0.200000 .
  Kept the default occupation width. Value:   0.010000 eV.

  Total energy components:
  | Sum of eigenvalues            :         -41.73620493 Ha       -1135.69991995 eV
  | XC energy correction          :          -9.09693629 Ha        -247.54023116 eV
  | XC potential correction       :          11.69653694 Ha         318.27896392 eV
  | Free-atom electrostatic energy:         -36.12797943 Ha        -983.09233951 eV
  | Hartree energy correction     :          -1.09636338 Ha         -29.83356551 eV
  | Entropy correction            :           0.00000000 Ha           0.00000000 eV
  | ---------------------------
  | Total energy                  :         -76.36094710 Ha       -2077.88709221 eV
  | Total energy, T -> 0          :         -76.36094710 Ha       -2077.88709221 eV  <-- do not rely on this value for anything but (periodic) metals
  | Electronic free energy        :         -76.36094710 Ha       -2077.88709221 eV

  Derived energy quantities:
  | Kinetic energy                :          76.19206863 Ha        2073.29167545 eV
  | Electrostatic energy          :        -143.45607944 Ha       -3903.63853651 eV
  | Energy correction for multipole
  | error in Hartree potential    :          -0.00054214 Ha          -0.01475234 eV
  | Sum of eigenvalues per atom                           :        -378.56663998 eV
  | Total energy (T->0) per atom                          :        -692.62903074 eV  <-- do not rely on this value for anything but (periodic) metals
  | Electronic free energy per atom                       :        -692.62903074 eV
  Evaluating new KS density using the density matrix
  Evaluating density matrix
  Time summed over all CPUs for getting density from density matrix: real work        1.894 s, elapsed        1.894 s
  Integration grid: deviation in total charge (<rho> - N_e) =   0.000000E+00

  Self-consistency convergence accuracy:
  | Change of charge density      :  0.2492E+00
  | Change of unmixed KS density  :  0.2416E-01
  | Change of sum of eigenvalues  :  0.2619E+02 eV
  | Change of total energy        :  0.1144E+01 eV


------------------------------------------------------------
  End self-consistency iteration #     2       :  max(cpu_time)    wall_clock(cpu1)
  | Time for this iteration                     :        6.908 s           7.005 s
  | Charge density update                       :        1.868 s           1.896 s
  | Density mixing & preconditioning            :        1.268 s           1.301 s
  | Hartree multipole update                    :        0.004 s           0.006 s
  | Hartree multipole summation                 :        2.732 s           2.759 s
  | Integration                                 :        1.036 s           1.038 s
  | Solution of K.-S. eqns.                     :        0.000 s           0.003 s
  | Total energy evaluation                     :        0.000 s           0.001 s

  Partial memory accounting:
  | Current value for overall tracked memory usage:
  |   Minimum:        1.228 MB (on task 0)
  |   Maximum:        1.228 MB (on task 0)
  |   Average:        1.228 MB
  | Peak value for overall tracked memory usage:
  |   Minimum:        6.083 MB (on task 0 after allocating gradient_basis_wave)
  |   Maximum:        6.083 MB (on task 0 after allocating gradient_basis_wave)
  |   Average:        6.083 MB
  | Largest tracked array allocation so far:
  |   Minimum:        1.748 MB (gradient_basis_wave on task 0)
  |   Maximum:        1.748 MB (gradient_basis_wave on task 0)
  |   Average:        1.748 MB
  Note:  These values currently only include a subset of arrays which are explicitly tracked.
  The "true" memory usage will be greater.
------------------------------------------------------------

------------------------------------------------------------
          Begin self-consistency iteration #    3

  Date     :  20220921, Time     :  131018.226
------------------------------------------------------------
  Pulay mixing of updated and previous charge densities.
  Renormalizing the density to the exact electron count on the 3D integration grid.
  | Formal number of electrons (from input files) :      10.0000000000
  | Integrated number of electrons on 3D grid     :       9.9978426903
  | Charge integration error                      :      -0.0021573097
  | Normalization factor for density and gradient :       1.0002157775

  Evaluating partitioned Hartree potential by multipole expansion.
  | Original multipole sum: apparent total charge =  -0.198479E-12
  | Sum of charges compensated after spline to logarithmic grids =   0.640860E-06
  | Analytical far-field extrapolation by fixed multipoles:
  | Hartree multipole sum: apparent total charge =  -0.198430E-12
  Summing up the Hartree potential.
  Time summed over all CPUs for potential: real work        2.830 s, elapsed        2.830 s
  | RMS charge density error from multipole expansion :   0.138163E-02
  | Average real-space part of the electrostatic potential :      0.08932368 eV

  Integrating Hamiltonian matrix: batch-based integration.
  Time summed over all CPUs for integration: real work        1.037 s, elapsed        1.037 s

  Updating Kohn-Sham eigenvalues and eigenvectors using ELSI and the (modified) LAPACK eigensolver.
  Starting LAPACK eigensolver
  Finished Cholesky decomposition
  | Time :     0.000 s
  Finished transformation to standard eigenproblem
  | Time :     0.000 s
  Finished solving standard eigenproblem
  | Time :     0.001 s
  Finished back-transformation of eigenvectors
  | Time :     0.000 s

  Obtaining occupation numbers and electronic chemical potential using ELSI.
  | Note that, for insulating systems, the printed 'chemical potential' value is not uniquely defined.
  | It can be anywhere in the energy gap, as long as it correctly separates occupied and unoccupied states.
  | In systems with a gap, the physically relevant chemical potential is the VBM or HOMO.

  | Chemical potential (Fermi level):    -7.05842192 eV
  Highest occupied state (VBM) at     -8.65042048 eV (relative to internal zero)
  | Occupation number:      2.00000000
  | K-point:       1 at    0.000000    0.000000    0.000000 (in units of recip. lattice)

  Lowest unoccupied state (CBM) at    -3.14451395 eV (relative to internal zero)
  | Occupation number:      0.00000000
  | K-point:       1 at    0.000000    0.000000    0.000000 (in units of recip. lattice)

  ESTIMATED overall HOMO-LUMO gap:      5.50590653 eV between HOMO at k-point 1 and LUMO at k-point 1
  The gap value is above 0.2 eV. Unless you are using a very sparse k-point grid,
  this system is most likely an insulator or a semiconductor.

  Total energy components:
  | Sum of eigenvalues            :         -41.98713532 Ha       -1142.52808311 eV
  | XC energy correction          :          -9.06823855 Ha        -246.75932600 eV
  | XC potential correction       :          11.65959691 Ha         317.27377461 eV
  | Free-atom electrostatic energy:         -36.12797943 Ha        -983.09233951 eV
  | Hartree energy correction     :          -0.84037293 Ha         -22.86771103 eV
  | Entropy correction            :           0.00000000 Ha           0.00000000 eV
  | ---------------------------
  | Total energy                  :         -76.36412932 Ha       -2077.97368505 eV
  | Total energy, T -> 0          :         -76.36412932 Ha       -2077.97368505 eV  <-- do not rely on this value for anything but (periodic) metals
  | Electronic free energy        :         -76.36412932 Ha       -2077.97368505 eV

  Derived energy quantities:
  | Kinetic energy                :          75.80157472 Ha        2062.66579538 eV
  | Electrostatic energy          :        -143.09746549 Ha       -3893.88015443 eV
  | Energy correction for multipole
  | error in Hartree potential    :          -0.00057905 Ha          -0.01575676 eV
  | Sum of eigenvalues per atom                           :        -380.84269437 eV
  | Total energy (T->0) per atom                          :        -692.65789502 eV  <-- do not rely on this value for anything but (periodic) metals
  | Electronic free energy per atom                       :        -692.65789502 eV
  Evaluating new KS density using the density matrix
  Evaluating density matrix
  Time summed over all CPUs for getting density from density matrix: real work        1.907 s, elapsed        1.907 s
  Integration grid: deviation in total charge (<rho> - N_e) =   1.243450E-14

  Self-consistency convergence accuracy:
  | Change of charge density      :  0.1180E+00
  | Change of unmixed KS density  :  0.1663E+00
  | Change of sum of eigenvalues  : -0.6828E+01 eV
  | Change of total energy        : -0.8659E-01 eV


------------------------------------------------------------
  End self-consistency iteration #     3       :  max(cpu_time)    wall_clock(cpu1)
  | Time for this iteration                     :        6.996 s           7.124 s
  | Charge density update                       :        1.876 s           1.910 s
  | Density mixing & preconditioning            :        1.276 s           1.304 s
  | Hartree multipole update                    :        0.004 s           0.006 s
  | Hartree multipole summation                 :        2.800 s           2.862 s
  | Integration                                 :        1.036 s           1.038 s
  | Solution of K.-S. eqns.                     :        0.004 s           0.003 s
  | Total energy evaluation                     :        0.000 s           0.001 s

  Partial memory accounting:
  | Current value for overall tracked memory usage:
  |   Minimum:        1.228 MB (on task 0)
  |   Maximum:        1.228 MB (on task 0)
  |   Average:        1.228 MB
  | Peak value for overall tracked memory usage:
  |   Minimum:        6.083 MB (on task 0 after allocating gradient_basis_wave)
  |   Maximum:        6.083 MB (on task 0 after allocating gradient_basis_wave)
  |   Average:        6.083 MB
  | Largest tracked array allocation so far:
  |   Minimum:        1.748 MB (gradient_basis_wave on task 0)
  |   Maximum:        1.748 MB (gradient_basis_wave on task 0)
  |   Average:        1.748 MB
  Note:  These values currently only include a subset of arrays which are explicitly tracked.
  The "true" memory usage will be greater.
------------------------------------------------------------

------------------------------------------------------------
          Begin self-consistency iteration #    4

  Date     :  20220921, Time     :  131025.352
------------------------------------------------------------
  Pulay mixing of updated and previous charge densities.
  Renormalizing the density to the exact electron count on the 3D integration grid.
  | Formal number of electrons (from input files) :      10.0000000000
  | Integrated number of electrons on 3D grid     :       9.9966648094
  | Charge integration error                      :      -0.0033351906
  | Normalization factor for density and gradient :       1.0003336303

  Evaluating partitioned Hartree potential by multipole expansion.
  | Original multipole sum: apparent total charge =  -0.324936E-13
  | Sum of charges compensated after spline to logarithmic grids =   0.924686E-06
  | Analytical far-field extrapolation by fixed multipoles:
  | Hartree multipole sum: apparent total charge =  -0.327150E-13
  Summing up the Hartree potential.
  Time summed over all CPUs for potential: real work        2.876 s, elapsed        2.876 s
  | RMS charge density error from multipole expansion :   0.223258E-02
  | Average real-space part of the electrostatic potential :      0.14083292 eV

  Integrating Hamiltonian matrix: batch-based integration.
  Time summed over all CPUs for integration: real work        1.063 s, elapsed        1.063 s

  Updating Kohn-Sham eigenvalues and eigenvectors using ELSI and the (modified) LAPACK eigensolver.
  Starting LAPACK eigensolver
  Finished Cholesky decomposition
  | Time :     0.000 s
  Finished transformation to standard eigenproblem
  | Time :     0.000 s
  Finished solving standard eigenproblem
  | Time :     0.000 s
  Finished back-transformation of eigenvectors
  | Time :     0.000 s

  Obtaining occupation numbers and electronic chemical potential using ELSI.
  | Note that, for insulating systems, the printed 'chemical potential' value is not uniquely defined.
  | It can be anywhere in the energy gap, as long as it correctly separates occupied and unoccupied states.
  | In systems with a gap, the physically relevant chemical potential is the VBM or HOMO.

  | Chemical potential (Fermi level):    -6.09907809 eV
  Highest occupied state (VBM) at     -7.49966344 eV (relative to internal zero)
  | Occupation number:      2.00000000
  | K-point:       1 at    0.000000    0.000000    0.000000 (in units of recip. lattice)

  Lowest unoccupied state (CBM) at    -2.92475811 eV (relative to internal zero)
  | Occupation number:      0.00000000
  | K-point:       1 at    0.000000    0.000000    0.000000 (in units of recip. lattice)

  ESTIMATED overall HOMO-LUMO gap:      4.57490534 eV between HOMO at k-point 1 and LUMO at k-point 1
  The gap value is above 0.2 eV. Unless you are using a very sparse k-point grid,
  this system is most likely an insulator or a semiconductor.

  Total energy components:
  | Sum of eigenvalues            :         -41.58618201 Ha       -1131.61758863 eV
  | XC energy correction          :          -9.12333270 Ha        -248.25851414 eV
  | XC potential correction       :          11.73185286 Ha         319.23995908 eV
  | Free-atom electrostatic energy:         -36.12797943 Ha        -983.09233951 eV
  | Hartree energy correction     :          -1.25018262 Ha         -34.01919987 eV
  | Entropy correction            :           0.00000000 Ha           0.00000000 eV
  | ---------------------------
  | Total energy                  :         -76.35582390 Ha       -2077.74768306 eV
  | Total energy, T -> 0          :         -76.35582390 Ha       -2077.74768306 eV  <-- do not rely on this value for anything but (periodic) metals
  | Electronic free energy        :         -76.35582390 Ha       -2077.74768306 eV

  Derived energy quantities:
  | Kinetic energy                :          75.85981248 Ha        2064.25052536 eV
  | Electrostatic energy          :        -143.09230367 Ha       -3893.73969428 eV
  | Energy correction for multipole
  | error in Hartree potential    :          -0.00092403 Ha          -0.02514405 eV
  | Sum of eigenvalues per atom                           :        -377.20586288 eV
  | Total energy (T->0) per atom                          :        -692.58256102 eV  <-- do not rely on this value for anything but (periodic) metals
  | Electronic free energy per atom                       :        -692.58256102 eV
  Evaluating new KS density using the density matrix
  Evaluating density matrix
  Time summed over all CPUs for getting density from density matrix: real work        1.889 s, elapsed        1.889 s
  Integration grid: deviation in total charge (<rho> - N_e) =  -7.105427E-15

  Self-consistency convergence accuracy:
  | Change of charge density      :  0.1021E+00
  | Change of unmixed KS density  :  0.6165E-01
  | Change of sum of eigenvalues  :  0.1091E+02 eV
  | Change of total energy        :  0.2260E+00 eV


------------------------------------------------------------
  End self-consistency iteration #     4       :  max(cpu_time)    wall_clock(cpu1)
  | Time for this iteration                     :        7.036 s           7.166 s
  | Charge density update                       :        1.856 s           1.890 s
  | Density mixing & preconditioning            :        1.264 s           1.293 s
  | Hartree multipole update                    :        0.008 s           0.006 s
  | Hartree multipole summation                 :        2.872 s           2.908 s
  | Integration                                 :        1.032 s           1.063 s
  | Solution of K.-S. eqns.                     :        0.004 s           0.003 s
  | Total energy evaluation                     :        0.000 s           0.001 s

  Partial memory accounting:
  | Current value for overall tracked memory usage:
  |   Minimum:        1.228 MB (on task 0)
  |   Maximum:        1.228 MB (on task 0)
  |   Average:        1.228 MB
  | Peak value for overall tracked memory usage:
  |   Minimum:        6.083 MB (on task 0 after allocating gradient_basis_wave)
  |   Maximum:        6.083 MB (on task 0 after allocating gradient_basis_wave)
  |   Average:        6.083 MB
  | Largest tracked array allocation so far:
  |   Minimum:        1.748 MB (gradient_basis_wave on task 0)
  |   Maximum:        1.748 MB (gradient_basis_wave on task 0)
  |   Average:        1.748 MB
  Note:  These values currently only include a subset of arrays which are explicitly tracked.
  The "true" memory usage will be greater.
------------------------------------------------------------

------------------------------------------------------------
          Begin self-consistency iteration #    5

  Date     :  20220921, Time     :  131032.520
------------------------------------------------------------
  Pulay mixing of updated and previous charge densities.
  Renormalizing the density to the exact electron count on the 3D integration grid.
  | Formal number of electrons (from input files) :      10.0000000000
  | Integrated number of electrons on 3D grid     :       9.9991497442
  | Charge integration error                      :      -0.0008502558
  | Normalization factor for density and gradient :       1.0000850328

  Evaluating partitioned Hartree potential by multipole expansion.
  | Original multipole sum: apparent total charge =  -0.667583E-13
  | Sum of charges compensated after spline to logarithmic grids =   0.104037E-05
  | Analytical far-field extrapolation by fixed multipoles:
  | Hartree multipole sum: apparent total charge =  -0.668813E-13
  Summing up the Hartree potential.
  Time summed over all CPUs for potential: real work        2.899 s, elapsed        2.899 s
  | RMS charge density error from multipole expansion :   0.227529E-02
  | Average real-space part of the electrostatic potential :      0.14678345 eV

  Integrating Hamiltonian matrix: batch-based integration.
  Time summed over all CPUs for integration: real work        1.036 s, elapsed        1.036 s

  Updating Kohn-Sham eigenvalues and eigenvectors using ELSI and the (modified) LAPACK eigensolver.
  Starting LAPACK eigensolver
  Finished Cholesky decomposition
  | Time :     0.000 s
  Finished transformation to standard eigenproblem
  | Time :     0.000 s
  Finished solving standard eigenproblem
  | Time :     0.001 s
  Finished back-transformation of eigenvectors
  | Time :     0.000 s

  Obtaining occupation numbers and electronic chemical potential using ELSI.
  | Note that, for insulating systems, the printed 'chemical potential' value is not uniquely defined.
  | It can be anywhere in the energy gap, as long as it correctly separates occupied and unoccupied states.
  | In systems with a gap, the physically relevant chemical potential is the VBM or HOMO.

  | Chemical potential (Fermi level):    -5.93850182 eV
  Highest occupied state (VBM) at     -7.33236559 eV (relative to internal zero)
  | Occupation number:      2.00000000
  | K-point:       1 at    0.000000    0.000000    0.000000 (in units of recip. lattice)

  Lowest unoccupied state (CBM) at    -2.88617262 eV (relative to internal zero)
  | Occupation number:      0.00000000
  | K-point:       1 at    0.000000    0.000000    0.000000 (in units of recip. lattice)

  ESTIMATED overall HOMO-LUMO gap:      4.44619297 eV between HOMO at k-point 1 and LUMO at k-point 1
  The gap value is above 0.2 eV. Unless you are using a very sparse k-point grid,
  this system is most likely an insulator or a semiconductor.

  Total energy components:
  | Sum of eigenvalues            :         -41.52329346 Ha       -1129.90630395 eV
  | XC energy correction          :          -9.13148708 Ha        -248.48040596 eV
[...]
  |    O      2     5.432602 A      5.432602 A        6.971814E-16 a.u.
  |    O      2     5.432602 A      5.432602 A        6.521279E-16 a.u.
  |    O      0     5.432602 A      5.499423 A       -1.598398E-16 a.u.
  |    O      1     5.432602 A      5.499423 A       -6.623470E-16 a.u.
  |    O      2     5.432602 A      5.499423 A        2.577536E-15 a.u.
  |    O      2     5.432602 A      5.499423 A        9.407342E-16 a.u.
  |    O      8     3.372465 A  6.545495E+01 A           53.933996 a.u.
  |    O      7     3.541477 A  1.266729E+02 A           85.792738 a.u.
  |    O      6     3.811008 A  3.160550E+02 A          215.734909 a.u.
  |    O      5     3.905335 A  7.546116E+02 A           66.915101 a.u.
  |    O      4     4.522403 A  3.227085E+03 A           67.117585 a.u.
  |    O      3     4.807458 A  2.586410E+04 A           45.412481 a.u.
  |    O      2     5.499423 A  6.214935E+05 A           12.891294 a.u.
  |    O      1     5.432602 A  2.966726E+08 A            2.501167 a.u.
  |    O      0     5.432602 A  4.309228E+16 A            0.648020 a.u.
  |    H      3     3.910002 A      3.910002 A       -8.941771E-16 a.u.
  |    H      3     3.910002 A      3.910002 A       -1.372309E-15 a.u.
  |    H      2     4.006780 A      4.006780 A        3.881382E-18 a.u.
  |    H      2     4.156456 A      4.156456 A       -8.736380E-16 a.u.
  |    H      2     4.156456 A      4.156456 A       -8.722129E-17 a.u.
  |    H      1     4.207581 A      4.207581 A        1.190097E-16 a.u.
  |    H      2     4.207581 A      4.207581 A        1.758706E-15 a.u.
  |    H      1     4.259334 A      4.259334 A        2.691313E-16 a.u.
  |    H      2     4.259334 A      4.259334 A        3.692414E-15 a.u.
  |    H      1     4.311724 A      4.364758 A       -2.140018E-16 a.u.
  |    H      1     4.527807 A      4.527807 A        2.361174E-17 a.u.
  |    H      1     4.472792 A      4.527807 A        3.714828E-16 a.u.
  |    H      1     4.472792 A      4.527807 A       -2.080923E-16 a.u.
  |    H      0     5.307721 A      5.307721 A       -1.945442E-17 a.u.
  |    H      0     5.307721 A      5.373006 A        3.815092E-16 a.u.
  |    H      0     5.439094 A      5.505995 A        1.661055E-16 a.u.
  |    H      0     5.439094 A      5.505995 A       -2.230350E-16 a.u.
  |    H      0     5.439094 A      5.505995 A        6.714831E-17 a.u.
  |    H      0     5.439094 A      5.505995 A       -7.560024E-17 a.u.
  |    H      0     5.505995 A      5.573719 A        1.581063E-16 a.u.
  |    H      0     5.505995 A      5.573719 A       -4.252689E-16 a.u.
  |    H      4     3.723403 A  1.627943E+03 A            2.192707 a.u.
  |    H      3     3.958095 A  1.432892E+04 A            4.277983 a.u.
  |    H      2     4.259334 A  4.743921E+05 A            5.733227 a.u.
  |    H      1     4.472792 A  2.627419E+08 A            1.961763 a.u.
  |    H      0     5.505995 A  5.052152E+16 A            0.759741 a.u.

  | Shrink_full_auxil_basis : there are       79  radial auxiliary wave functions
                            accepted and     113 rejected.
  | Shrink_full_auxil_basis : there are totally                 517 partial auxiliary wave functions.
 
  | Number of product basis functions per thread :   517
  | Minimal requirement for computer memory :           0.011 Gbs
 
  Basis pair condensation :      2415  -->       2415
 
 --------------------------------------------
  Constructing auxiliary basis (full product) ...
 
  Product basis:
  | charge radius: extent of product basis function
  | field radius: extent of its Coulomb potential
  | Species   l  charge radius    field radius  multipol momen
  |    O      0     2.043000 A      2.043000 A       -4.960558E-17 a.u.
  |    O      7     3.498446 A      3.498446 A        2.436164E-14 a.u.
  |    O      6     3.585037 A      3.585037 A        4.134405E-15 a.u.
  |    O      6     3.718959 A      3.718959 A       -1.637045E-15 a.u.
  |    O      6     3.764702 A      3.764702 A       -4.267479E-15 a.u.
  |    O      4     3.811008 A      3.811008 A       -1.730877E-15 a.u.
  |    O      5     3.811008 A      3.811008 A        1.416843E-15 a.u.
  |    O      3     3.857883 A      3.857883 A       -3.574833E-17 a.u.
  |    O      5     3.857883 A      3.857883 A        1.022360E-14 a.u.
  |    O      5     3.905335 A      3.905335 A        1.269833E-14 a.u.
  |    O      3     3.953371 A      3.953371 A       -2.838968E-16 a.u.
  |    O      3     3.953371 A      3.953371 A        9.789340E-16 a.u.
  |    O      1     4.151495 A      4.151495 A        1.153357E-16 a.u.
  |    O      0     4.202559 A      4.202559 A       -1.197631E-18 a.u.
  |    O      0     4.202559 A      4.202559 A       -1.929751E-17 a.u.
  |    O      4     4.359549 A      4.359549 A       -2.110901E-16 a.u.
  |    O      3     4.413171 A      4.413171 A        1.879323E-15 a.u.
  |    O      4     4.413171 A      4.413171 A        1.265856E-14 a.u.
  |    O      0     4.467453 A      4.467453 A       -1.337118E-16 a.u.
  |    O      1     4.467453 A      4.467453 A       -2.473118E-17 a.u.
  |    O      4     4.467453 A      4.467453 A       -6.176044E-15 a.u.
  |    O      4     4.467453 A      4.467453 A       -7.613536E-15 a.u.
  |    O      1     4.578029 A      4.578029 A        5.196354E-18 a.u.
  |    O      2     4.578029 A      4.578029 A        4.424971E-17 a.u.
  |    O      1     4.634338 A      4.634338 A        1.950805E-17 a.u.
  |    O      1     4.634338 A      4.634338 A        1.866713E-16 a.u.
  |    O      1     4.634338 A      4.634338 A        1.425744E-16 a.u.
  |    O      3     4.634338 A      4.634338 A        7.949122E-15 a.u.
  |    O      3     4.749044 A      4.749044 A       -3.116693E-17 a.u.
  |    O      3     4.749044 A      4.749044 A        1.811034E-15 a.u.
  |    O      0     4.987044 A      4.987044 A        1.255033E-16 a.u.
  |    O      0     4.987044 A      4.987044 A        1.038959E-16 a.u.
  |    O      2     5.236971 A      5.236971 A        2.903990E-16 a.u.
  |    O      2     5.236971 A      5.236971 A       -3.133973E-16 a.u.
  |    O      0     5.366593 A      5.432602 A       -1.467074E-16 a.u.
  |    O      1     5.432602 A      5.432602 A        6.570290E-16 a.u.
  |    O      1     5.432602 A      5.432602 A        4.359738E-17 a.u.
  |    O      2     5.432602 A      5.432602 A       -3.887858E-15 a.u.
  |    O      2     5.432602 A      5.432602 A        6.971814E-16 a.u.
  |    O      2     5.432602 A      5.432602 A        6.521279E-16 a.u.
  |    O      0     5.432602 A      5.499423 A       -1.598398E-16 a.u.
  |    O      1     5.432602 A      5.499423 A       -6.623470E-16 a.u.
  |    O      2     5.432602 A      5.499423 A        2.577536E-15 a.u.
  |    O      2     5.432602 A      5.499423 A        9.407342E-16 a.u.
  |    O      8     3.372465 A  6.545495E+01 A           53.933996 a.u.
  |    O      7     3.541477 A  1.266729E+02 A           85.792738 a.u.
  |    O      6     3.811008 A  3.160550E+02 A          215.734909 a.u.
  |    O      5     3.905335 A  7.546116E+02 A           66.915101 a.u.
  |    O      4     4.522403 A  3.227085E+03 A           67.117585 a.u.
  |    O      3     4.807458 A  2.586410E+04 A           45.412481 a.u.
  |    O      2     5.499423 A  6.214935E+05 A           12.891294 a.u.
  |    O      1     5.432602 A  2.966726E+08 A            2.501167 a.u.
  |    O      0     5.432602 A  4.309228E+16 A            0.648020 a.u.
  |    H      3     3.910002 A      3.910002 A       -8.941771E-16 a.u.
  |    H      3     3.910002 A      3.910002 A       -1.372309E-15 a.u.
  |    H      2     4.006780 A      4.006780 A        3.881382E-18 a.u.
  |    H      2     4.156456 A      4.156456 A       -8.736380E-16 a.u.
  |    H      2     4.156456 A      4.156456 A       -8.722129E-17 a.u.
  |    H      1     4.207581 A      4.207581 A        1.190097E-16 a.u.
  |    H      2     4.207581 A      4.207581 A        1.758706E-15 a.u.
  |    H      1     4.259334 A      4.259334 A        2.691313E-16 a.u.
  |    H      2     4.259334 A      4.259334 A        3.692414E-15 a.u.
  |    H      1     4.311724 A      4.364758 A       -2.140018E-16 a.u.
  |    H      1     4.527807 A      4.527807 A        2.361174E-17 a.u.
  |    H      1     4.472792 A      4.527807 A        3.714828E-16 a.u.
  |    H      1     4.472792 A      4.527807 A       -2.080923E-16 a.u.
  |    H      0     5.307721 A      5.307721 A       -1.945442E-17 a.u.
  |    H      0     5.307721 A      5.373006 A        3.815092E-16 a.u.
  |    H      0     5.439094 A      5.505995 A        1.661055E-16 a.u.
  |    H      0     5.439094 A      5.505995 A       -2.230350E-16 a.u.
  |    H      0     5.439094 A      5.505995 A        6.714831E-17 a.u.
  |    H      0     5.439094 A      5.505995 A       -7.560024E-17 a.u.
  |    H      0     5.505995 A      5.573719 A        1.581063E-16 a.u.
  |    H      0     5.505995 A      5.573719 A       -4.252689E-16 a.u.
  |    H      4     3.723403 A  1.627943E+03 A            2.192707 a.u.
  |    H      3     3.958095 A  1.432892E+04 A            4.277983 a.u.
  |    H      2     4.259334 A  4.743921E+05 A            5.733227 a.u.
  |    H      1     4.472792 A  2.627419E+08 A            1.961763 a.u.
  |    H      0     5.505995 A  5.052152E+16 A            0.759741 a.u.

  | Shrink_full_auxil_basis : there are       79  radial auxiliary wave functions
                            accepted and     113 rejected.
  | Shrink_full_auxil_basis : there are totally                 517 partial auxiliary wave functions.
 
  | Number of product basis functions per thread :   517
  | Minimal requirement for computer memory :           0.011 Gbs
 
  Basis pair condensation :      2415  -->       2415
dP_dE (Bohr^3) at every cycle:--->
 (15.1652323825693,0.000000000000000E+000) (0.404657415400950,0.000000000000000E+000) (-0.266871928995788,0.000000000000000E+000)
 (0.404712303752506,0.000000000000000E+000) (14.0254888181853,0.000000000000000E+000) (2.042389238080548E-002,0.000000000000000E+000)
 (-0.267092936806935,0.000000000000000E+000) (2.035315344711308E-002,0.000000000000000E+000) (17.3286113775211,0.000000000000000E+000)
DFPT polarizability (Bohr^3)        xx        yy        zz        xy        xz        yz
  | Polarizability:--->             15.165    14.025    17.329     0.405    -0.267     0.020

DFPT for dielectric_constant:--->
   1.22591877121579       6.028243006405744E-003 -3.975631678418242E-003
  6.029060686519362E-003   1.20893983814895       3.042578282821829E-004
 -3.978924065363847E-003  3.032040196379269E-004   1.25814695683696

                                               :  max(cpu_time)    wall_clock(cpu1)
  | Time for  dielectric calculation            :        0.000 s           0.000 s
===========================================================================

------------------------------------------------------------------------------
  Final output of selected total energy values:

  The following output summarizes some interesting total energy values
  at the end of a run (AFTER all relaxation, molecular dynamics, etc.).

  | Total energy of the DFT / Hartree-Fock s.c.f. calculation      :          -2077.733587476 eV
  | Final zero-broadening corrected energy (caution - metals only) :          -2077.733587476 eV
  | For reference only, the value of 1 Hartree used in FHI-aims is :             27.211384500 eV
  | For reference only, the overall average (free atom contribution
  | + realspace contribution) of the electrostatic potential after
  | s.c.f. convergence is                                          :             -1.133660216 eV

  Before relying on these values, please be sure to understand exactly which
  total energy value is referred to by a given number. Different objects may
  all carry the same name 'total energy'. Definitions:

  Total energy of the DFT / Hartree-Fock s.c.f. calculation:
  | Note that this energy does not include ANY quantities calculated after the
  | s.c.f. cycle, in particular not ANY RPA, MP2, etc. many-body perturbation terms.

  Final zero-broadening corrected energy:
  | For metallic systems only, a broadening of the occupation numbers at the Fermi
  | level can be extrapolated back to zero broadening by an electron-gas inspired
  | formula. For all systems that are not real metals, this value can be
  | meaningless and should be avoided.

------------------------------------------------------------------------------
  Methods described in the following list of references were used in this FHI-aims run.
  If you publish the results, please make sure to cite these reference if they apply.
  FHI-aims is an academic code, and for our developers (often, Ph.D. students
  and postdocs), scientific credit in the community is essential.
  Thank you for helping us!

  For any use of FHI-aims, please cite:

    Volker Blum, Ralf Gehrke, Felix Hanke, Paula Havu, Ville Havu,
    Xinguo Ren, Karsten Reuter, and Matthias Scheffler
    'Ab initio molecular simulations with numeric atom-centered orbitals'
    Computer Physics Communications 180, 2175-2196 (2009)
    http://doi.org/10.1016/j.cpc.2009.06.022


  For Hartree-Fock, hybrid functionals, or many-body perturbation theory used in your run, please cite:

    Xinguo Ren, Patrick Rinke, Volker Blum, Juergen Wieferink, Alex Tkatchenko,
    Andrea Sanfilippo, Karsten Reuter, and Matthias Scheffler,
    'Resolution-of-identity approach to Hartree-Fock, hybrid density functionals,
    RPA, MP2, and GW with numeric atom-centered orbital basis functions'
    New Journal of Physics 14, 053020 (2012).
    http://doi.org/10.1088/1367-2630/14/5/053020


  The provided symmetry information was generated with SPGlib:

    Atsushi Togo, Yusuke Seto, Dimitar Pashov
    SPGlib 1.7.3 obtained from http://spglib.sourceforge.net
    Copyright (C) 2008 Atsushi Togo


  The DFPT (perturbation by an electric field) part of the code was used.
  Here is the corresponding reference:

    Honghui Shang, Nathaniel Raimbault, Mariana Rossi,
    Christian Carbogno, Patrick Rinke and Matthias Scheffler,
    'All-Electron, Real-Space Perturbation Theory for Homogeneous
    Electric Fields: Theory, Implementation, and Application within dft'
    New Journal of Physics, 20(7):073040, 2018


  The ELSI infrastructure was used in your run to solve the Kohn-Sham electronic structure.
  Please check out http://elsi-interchange.org to learn more.
  If scalability is important for your project, please acknowledge ELSI by citing:

    V. W-z. Yu, F. Corsetti, A. Garcia, W. P. Huhn, M. Jacquelin, W. Jia,
    B. Lange, L. Lin, J. Lu, W. Mi, A. Seifitokaldani, A. Vazquez-Mayagoitia,
    C. Yang, H. Yang, and V. Blum
    'ELSI: A unified software interface for Kohn-Sham electronic structure solvers'
    Computer Physics Communications 222, 267-285 (2018).
    http://doi.org/10.1016/j.cpc.2017.09.007


  For the real-space grid partitioning and parallelization used in this calculation, please cite:

    Ville Havu, Volker Blum, Paula Havu, and Matthias Scheffler,
    'Efficient O(N) integration for all-electron electronic structure calculation'
    'using numerically tabulated basis functions'
    Journal of Computational Physics 228, 8367-8379 (2009).
    http://doi.org/10.1016/j.jcp.2009.08.008


  The high-level electronic structure method used in your calculation
  employed our efficient localized resolution of identity for the Coulomb operator.
  Some calculations, especially large-scale hybrid density functional theory,
  are only possible thanks to this development. For this feature, please cite:

    Arvid Ihrig, Juergen Wieferink, Igor Ying Zhang, Matti Ropo, Xinguo Ren,
    Patrick Rinke, Matthias Scheffler, and Volker Blum,
    'Accurate localized resolution of identity approach for linear-scaling
    hybrid density functionals and for many-body perturbation theory'
    New Journal of Physics 117, 093020 (2015).
    http://doi.org/10.1088/1367-2630/17/9/093020

  Of course, there are many other important community references, e.g., those cited in the
  above references. Our list is limited to references that describe implementations in the
  FHI-aims code. The reason is purely practical (length of this list) - please credit others as well.

------------------------------------------------------------
          Leaving FHI-aims.
          Date     :  20220921, Time     :  131841.579

          Computational steps:
          | Number of self-consistency cycles          :           34
          | Number of SCF (re)initializations          :            1
          | Number of coupled perturbed self-consistency cycles          :            0
          | Number of CPSCF (re)initializations          :            0

          Detailed time accounting                     :  max(cpu_time)    wall_clock(cpu1)
          | Total time                                  :      514.684 s         522.327 s
          | Preparation time                            :        0.132 s           0.137 s
          | Boundary condition initalization            :        0.068 s           0.067 s
          | Grid partitioning                           :        0.188 s           0.191 s
          | Preloading free-atom quantities on grid     :        1.092 s           1.117 s
          | Free-atom superposition energy              :        0.160 s           0.158 s
          | Total time for integrations                 :       16.152 s          16.396 s
          | Product basis setup: Total time             :        0.000 s           0.000 s
          | Product basis: | 2-center integrations     :(       0.000 s)  (       0.000 s)
          | Product basis: | LVL 3-center & coefficient:(       0.000 s)  (       0.000 s)
          | Total time for solution of K.-S. equations  :        0.020 s           0.044 s
          | Total time for density update               :       26.120 s          26.543 s
          | Total time for mixing & preconditioning     :       17.492 s          17.732 s
          | Total time for Hartree multipole update     :        0.084 s           0.086 s
          | Total time for Hartree multipole sum        :       39.524 s          40.114 s
          | Total time for total energy evaluation      :        0.004 s           0.016 s
          | Total time first_order_DM                   :        0.004 s           0.005 s
          | Total time first_order_density              :       39.776 s          40.339 s
          | Total time first_order_potential            :       65.396 s          66.368 s
          | Total time first_order_H                    :      265.996 s         269.805 s
          | Total time solving of Sternheimer equations :        0.016 s           0.009 s
          | Total time for dielectric constant          :        0.000 s           0.000 s
          | Total time momentum matrix                  :        0.000 s           0.000 s

          Partial memory accounting:
          | Residual value for overall tracked memory usage across tasks:     0.000000 MB (should be 0.000000 MB)
          | Peak values for overall tracked memory usage:
          |   Minimum:        9.800 MB (on task 0 after allocating DFPT_pulay_mixing::pulay_mix::alphas)
          |   Maximum:        9.800 MB (on task 0 after allocating DFPT_pulay_mixing::pulay_mix::alphas)
          |   Average:        9.800 MB
          | Largest tracked array allocation:
          |   Minimum:        3.333 MB (DFPT_pulay_mixing::initialize_pulay_mixing::X_in_diffs on task 0)
          |   Maximum:        3.333 MB (DFPT_pulay_mixing::initialize_pulay_mixing::X_in_diffs on task 0)
          |   Average:        3.333 MB
          Note:  These values currently only include a subset of arrays which are explicitly tracked.
          The "true" memory usage will be greater.

          Have a nice day.
------------------------------------------------------------
