------------------------------------------------------------
          Invoking FHI-aims ...

          When using FHI-aims, please cite the following reference:

            Volker Blum, Ralf Gehrke, Felix Hanke, Paula Havu,
            Ville Havu, Xinguo Ren, Karsten Reuter, and Matthias Scheffler,
            'Ab Initio Molecular Simulations with Numeric Atom-Centered Orbitals',
            Computer Physics Communications 180, 2175-2196 (2009)

          In addition, many other developments in FHI-aims are likely important for
          your particular application. A partial list of references is given at the end of
          this file. Thank you for giving credit to the authors of these developments.

          For any questions about FHI-aims, please visit our slack channel at

            https://fhi-aims.slack.com

          and our main development and support site at

            https://aims-git.rz-berlin.mpg.de .

          The latter site, in particular, has a wiki to collect information, as well
          as an issue tracker to log discussions, suggest improvements, and report issues
          or bugs. https://aims-git.rz-berlin.mpg.de is also the main development site
          of the project and all new and updated code versions can be obtained there.
          Please send an email to aims-coordinators@fhi-berlin.mpg.de and we will add
          you to these sites. They are for you and everyone is welcome there.

------------------------------------------------------------



  Date     :  20221003, Time     :  100727.054
  Time zero on CPU 1             :   0.360000000000000E-01  s.
  Internal wall clock time zero  :           434023647.054  s.

  FHI-aims created a unique identifier for this run for later identification
  aims_uuid : 1905301C-8F98-4B44-AD32-0AD3EE929C1D

  Build configuration of the current instance of FHI-aims
  -------------------------------------------------------
  FHI-aims version      : 220810
  Commit number         : eae8be818
  CMake host system     : Linux-4.9.0-16-amd64
  CMake version         : 3.17.3
  Fortran compiler      : /opt/easybuild/software/impi/2017.3.196-iccifort-2017.4.196-GCC-6.4.0-2.28/bin64/mpiifort (Intel) version 17.0.4.20170411
  Fortran compiler flags: -O3 -ip -fp-model precise
  C compiler            : /opt/easybuild/software/icc/2017.4.196-GCC-6.4.0-2.28/compilers_and_libraries_2017.4.196/linux/bin/intel64/icc (Intel) version 17.0.4.20170411
  C compiler flags      : -O3 -ip -fp-model precise -std=gnu99
  Using MPI
  Using ScaLAPACK
  Using LibXC
  Using i-PI
  Using RLSY
  Linking against: /opt/easybuild/software/imkl/2017.3.196-iimpi-2017b/mkl/lib/intel64/libmkl_intel_lp64.so
                   /opt/easybuild/software/imkl/2017.3.196-iimpi-2017b/mkl/lib/intel64/libmkl_sequential.so
                   /opt/easybuild/software/imkl/2017.3.196-iimpi-2017b/mkl/lib/intel64/libmkl_core.so
                   /opt/easybuild/software/imkl/2017.3.196-iimpi-2017b/mkl/lib/intel64/libmkl_blacs_intelmpi_lp64.so
                   /opt/easybuild/software/imkl/2017.3.196-iimpi-2017b/mkl/lib/intel64/libmkl_scalapack_lp64.so

  Using       16 parallel tasks.
  Task        0 on host mpsd-hpc-ibm-056 reporting.
  Task        1 on host mpsd-hpc-ibm-056 reporting.
  Task        2 on host mpsd-hpc-ibm-056 reporting.
  Task        3 on host mpsd-hpc-ibm-056 reporting.
  Task        4 on host mpsd-hpc-ibm-057 reporting.
  Task        5 on host mpsd-hpc-ibm-057 reporting.
  Task        6 on host mpsd-hpc-ibm-057 reporting.
  Task        7 on host mpsd-hpc-ibm-057 reporting.
  Task        8 on host mpsd-hpc-ibm-058 reporting.
  Task        9 on host mpsd-hpc-ibm-058 reporting.
  Task       10 on host mpsd-hpc-ibm-058 reporting.
  Task       11 on host mpsd-hpc-ibm-058 reporting.
  Task       12 on host mpsd-hpc-ibm-059 reporting.
  Task       13 on host mpsd-hpc-ibm-059 reporting.
  Task       14 on host mpsd-hpc-ibm-059 reporting.
  Task       15 on host mpsd-hpc-ibm-059 reporting.

  Performing system and environment tests:
  | Environment variable OMP_NUM_THREADS correctly set to 1.
  | Checking for ScaLAPACK...
  | Testing pdtran()...
  | All pdtran() tests passed.

  Obtaining array dimensions for all initial allocations:
  
  -----------------------------------------------------------------------
  Parsing control.in (first pass over file, find array dimensions only).
  The contents of control.in will be repeated verbatim below
  unless switched off by setting 'verbatim_writeout .false.' .
  in the first line of control.in .
  -----------------------------------------------------------------------
  
  #########################################################################################
  #
  #  Volker Blum, 2017 : Test run input file control.in for simple H2O
  #
  #########################################################################################
  #
  #  Physical model
  #
    xc                 pbe
    spin               none
    relativistic       none
    charge             0.
  
  #  ri_density_restart         write
  #  ri_rho1 write
  #  ri_full_output .True.
  #  ri_output_density_only .True.
    DFPT dielectric
    sc_accuracy_rho    1d-6
  #  use_calculate_fock_matrix_old .false.
  #  output cube total_density
    k_grid 1 1 1
    wave_threshold 1e-8
  
  # prodbas_threshold 1e-2
  #
  #  Relaxation
  #
  #  relax_geometry   bfgs 1.e-2
  #
  
  ################################################################################
  
  ################################################################################
  #
  #  FHI-aims code project
  #  VB, Fritz-Haber Institut, 2009
  #
  #  Suggested "light" defaults for O atom (to be pasted into control.in file)
  #  Be sure to double-check any results obtained with these settings for post-processing,
  #  e.g., with the "tight" defaults and larger basis sets.
  #
  ################################################################################
    species        O
  #     global species definitions
      nucleus             8
      mass                15.9994
  #
      l_hartree           6
  #
      cut_pot             4.0  2.0  1.0
      basis_dep_cutoff    1e-4
  #
      radial_base         36 7.0
      radial_multiplier   2
       angular_grids specified
        division   0.2659   50
        division   0.4451  110
        division   0.6052  194
        division   0.7543  302
        division   0.8014  434
  #      division   0.8507  590
  #      division   0.8762  770
  #      division   0.9023  974
  #      division   1.2339 1202
  #      outer_grid 974
        outer_grid 434
  ################################################################################
  #
  #  Definition of "minimal" basis
  #
  ################################################################################
  #     valence basis states
      valence      2  s   2.
      valence      2  p   4.
  #     ion occupancy
      ion_occ      2  s   1.
      ion_occ      2  p   3.
  ################################################################################
  #
  #  Suggested additional basis functions. For production calculations,
  #  uncomment them one after another (the most important basis functions are
  #  listed first).
  #
  #
  ################################################################################
  #  "First tier" - improvements: -699.05 meV to -159.38 meV
       hydro 2 p 1.8
       hydro 3 d 7.6
       hydro 3 s 6.4
  #  "Second tier" - improvements: -49.91 meV to -5.39 meV
       hydro 4 f 11.6
       hydro 3 p 6.2
       hydro 3 d 5.6
       hydro 5 g 17.6
       hydro 1 s 0.75
  #  "Third tier" - improvements: -2.83 meV to -0.50 meV
  #     ionic 2 p auto
  #     hydro 4 f 10.8
  #     hydro 4 d 4.7
  #     hydro 2 s 6.8
  #  "Fourth tier" - improvements: -0.40 meV to -0.12 meV
  #     hydro 3 p 5
  #     hydro 3 s 3.3
  #     hydro 5 g 15.6
  #     hydro 4 f 17.6
  #     hydro 4 d 14
  # Further basis functions - -0.08 meV and below
  #     hydro 3 s 2.1
  #     hydro 4 d 11.6
  #     hydro 3 p 16
  #     hydro 2 s 17.2
  ################################################################################
  #
  #  FHI-aims code project
  #  VB, Fritz-Haber Institut, 2009
  #
  #  Suggested "light" defaults for H atom (to be pasted into control.in file)
  #  Be sure to double-check any results obtained with these settings for post-processing,
  #  e.g., with the "tight" defaults and larger basis sets.
  #
  ################################################################################
    species        H
  #     global species definitions
      nucleus             1
      mass                1.00794
  #
      l_hartree           6
  #
      cut_pot             4.0  2.0  1.0
      basis_dep_cutoff    1e-4
  #
      radial_base         24 7.0
      radial_multiplier   2
      angular_grids       specified
        division   0.2421   50
        division   0.3822  110
        division   0.4799  194
        division   0.5341  302
        division   0.5626  434
  #      division   0.5922  590
  #      division   0.6542  770
  #      division   0.6868 1202
  #      outer_grid  770
        outer_grid  434
  ################################################################################
  #
  #  Definition of "minimal" basis
  #
  ################################################################################
  #     valence basis states
      valence      1  s   1.
  #     ion occupancy
      ion_occ      1  s   0.5
  ################################################################################
  #
  #  Suggested additional basis functions. For production calculations,
  #  uncomment them one after another (the most important basis functions are
  #  listed first).
  #
  #  Basis constructed for dimers: 0.5 A, 0.7 A, 1.0 A, 1.5 A, 2.5 A
  #
  ################################################################################
  #  "First tier" - improvements: -1014.90 meV to -62.69 meV
       hydro 2 s 2.1
       hydro 2 p 3.5
  #  "Second tier" - improvements: -12.89 meV to -1.83 meV
      hydro 1 s 0.85
      hydro 2 p 3.7
      hydro 2 s 1.2
      hydro 3 d 7
  #  "Third tier" - improvements: -0.25 meV to -0.12 meV
  #    hydro 4 f 11.2
  #    hydro 3 p 4.8
  #    hydro 4 d 9
  #    hydro 3 s 3.2
  #
  
  
  -----------------------------------------------------------------------
  Completed first pass over input file control.in .
  -----------------------------------------------------------------------
  
  
  -----------------------------------------------------------------------
  Parsing geometry.in (first pass over file, find array dimensions only).
  The contents of geometry.in will be repeated verbatim below
  unless switched off by setting 'verbatim_writeout .false.' .
  in the first line of geometry.in .
  -----------------------------------------------------------------------
  
  #=======================================================
  # FHI-aims file: qmdata/data/geoms/88.in
  # Created using the Atomic Simulation Environment (ASE)
  # Wed Sep 21 12:30:23 2022
  #=======================================================
  lattice_vector 5.0000000000000000 0.0000000000000000 0.0000000000000000
  lattice_vector 0.0000000000000000 5.0000000000000000 0.0000000000000000
  lattice_vector 0.0000000000000000 0.0000000000000000 5.0000000000000000
  atom 0.0663290500000000 0.0000000100000000 0.0037004200000000 O
  atom -0.5263882300000000 -0.7693266800000000 -0.0293665900000000 H
  atom -0.5263880800000000 0.7693264600000000 -0.0293665900000000 H
  
  -----------------------------------------------------------------------
  Completed first pass over input file geometry.in .
  -----------------------------------------------------------------------
  

  Basic array size parameters:
  | Number of species                 :        2
  | Number of atoms                   :        3
  | Number of lattice vectors         :        3
  | Max. basis fn. angular momentum   :        4
  | Max. atomic/ionic basis occupied n:        2
  | Max. number of basis fn. types    :        2
  | Max. radial fns per species/type  :        8
  | Max. logarithmic grid size        :     1301
  | Max. radial integration grid size :       73
  | Max. angular integration grid size:      434
  | Max. angular grid division number :        8
  | Radial grid for Hartree potential :     1301
  | Number of spin channels           :        1

------------------------------------------------------------
          Reading file control.in.
------------------------------------------------------------
  XC: Using PBE gradient-corrected functionals.
  Spin treatment: No spin polarisation.
  Non-relativistic treatment of kinetic energy.
  Charge =   0.000000E+00: Neutral system requested explicitly.
  DFPT calculation will begin after the DFT/HF calculation.
  Convergence accuracy of self-consistent charge density:  0.1000E-05
  Found k-point grid:         1         1         1
  Threshold value for wave function integration:  0.1000E-07
 
  Reading configuration options for species O                   .
  | Found nuclear charge :   8.0000
  | Found atomic mass :    15.9994000000000      amu
  | Found l_max for Hartree potential  :   6
  | Found cutoff potl. onset [A], width [A], scale factor :    4.00000    2.00000    1.00000
  | Threshold for basis-dependent cutoff potential is   0.100000E-03
  | Found data for basic radial integration grid :    36 points, outermost radius =    7.000 A
  | Found multiplier for basic radial grid :   2
  | Found angular grid specification: user-specified.
  | Specified grid contains     6 separate shells.
  | Check grid settings after all constraints further below.
  | Found free-atom valence shell :  2 s   2.000
  | Found free-atom valence shell :  2 p   4.000
  | No ionic wave fns used. Skipping ion_occ.
  | No ionic wave fns used. Skipping ion_occ.
  | Found hydrogenic basis function :  2 p   1.800
  | Found hydrogenic basis function :  3 d   7.600
  | Found hydrogenic basis function :  3 s   6.400
  | Found hydrogenic basis function :  4 f  11.600
  | Found hydrogenic basis function :  3 p   6.200
  | Found hydrogenic basis function :  3 d   5.600
  | Found hydrogenic basis function :  5 g  17.600
  | Found hydrogenic basis function :  1 s   0.750
  Species O                   : Missing cutoff potential type.
  Defaulting to exp(1/x)/(1-x)^2 type cutoff potential.
  Species O : No 'logarithmic' tag. Using default grid for free atom:
  | Default logarithmic grid data [bohr] : 0.1000E-03 0.1000E+03 0.1012E+01
  Species O : On-site basis accuracy parameter (for Gram-Schmidt orthonormalisation) not specified.
  Using default value basis_acc =  0.1000000E-03.
  Species O                   : Using default innermost maximum threshold i_radial=  2 for radial functions.
  Species O                   : Default cutoff onset for free atom density etc. : 0.40000000E+01 AA.
  Species O                   : Basic radial grid will be enhanced according to radial_multiplier =   2, to contain    73 grid points.
 
  Reading configuration options for species H                   .
  | Found nuclear charge :   1.0000
  | Found atomic mass :    1.00794000000000      amu
  | Found l_max for Hartree potential  :   6
  | Found cutoff potl. onset [A], width [A], scale factor :    4.00000    2.00000    1.00000
  | Threshold for basis-dependent cutoff potential is   0.100000E-03
  | Found data for basic radial integration grid :    24 points, outermost radius =    7.000 A
  | Found multiplier for basic radial grid :   2
  | Found angular grid specification: user-specified.
  | Specified grid contains     6 separate shells.
  | Check grid settings after all constraints further below.
  | Found free-atom valence shell :  1 s   1.000
  | No ionic wave fns used. Skipping ion_occ.
  | Found hydrogenic basis function :  2 s   2.100
  | Found hydrogenic basis function :  2 p   3.500
  | Found hydrogenic basis function :  1 s   0.850
  | Found hydrogenic basis function :  2 p   3.700
  | Found hydrogenic basis function :  2 s   1.200
  | Found hydrogenic basis function :  3 d   7.000
  Species H                   : Missing cutoff potential type.
  Defaulting to exp(1/x)/(1-x)^2 type cutoff potential.
  Species H : No 'logarithmic' tag. Using default grid for free atom:
  | Default logarithmic grid data [bohr] : 0.1000E-03 0.1000E+03 0.1012E+01
  Species H : On-site basis accuracy parameter (for Gram-Schmidt orthonormalisation) not specified.
  Using default value basis_acc =  0.1000000E-03.
  Species H                   : Using default innermost maximum threshold i_radial=  2 for radial functions.
  Species H                   : Default cutoff onset for free atom density etc. : 0.40000000E+01 AA.
  Species H                   : Basic radial grid will be enhanced according to radial_multiplier =   2, to contain    49 grid points.
 
  Finished reading input file 'control.in'.
 
------------------------------------------------------------


------------------------------------------------------------
          Reading geometry description geometry.in.
------------------------------------------------------------
  | The smallest distance between any two atoms is         0.97173567 AA.
  | The first atom of this pair is atom number                      1 .
  | The second atom of this pair is atom number                     3 .
  | Wigner-Seitz cell of the first atom image           0     0     0 .
  | (The Wigner-Seitz cell of the second atom is 0 0 0  by definition.)

  Symmetry information by spglib:
  | Precision set to  0.1E-04
  | Number of Operations  : 2
  | Space group           : 6
  | International         : Pm  a    IH
  | Schoenflies           : Cs^1
  Input structure read successfully.
  The structure contains        3 atoms,  and a total of         10.000 electrons.

  Input geometry:
  | Unit cell:
  |        5.00000000        0.00000000        0.00000000
  |        0.00000000        5.00000000        0.00000000
  |        0.00000000        0.00000000        5.00000000
  | Atomic structure:
  |       Atom                x [A]            y [A]            z [A]
  |    1: Species O             0.06632905        0.00000001        0.00370042
  |    2: Species H            -0.52638823       -0.76932668       -0.02936659
  |    3: Species H            -0.52638808        0.76932646       -0.02936659

  Lattice parameters for 3D lattice (in Angstroms) :     5.000000    5.000000    5.000000
  Angle(s) between unit vectors (in degrees)       :    90.000000   90.000000   90.000000


  Quantities derived from the lattice vectors (in Angstrom^-1):
  | Reciprocal lattice vector 1:  1.256637  0.000000  0.000000
  | Reciprocal lattice vector 2:  0.000000  1.256637  0.000000
  | Reciprocal lattice vector 3:  0.000000  0.000000  1.256637
  | Unit cell volume                               :   0.125000E+03  Angstrom^3

  Fractional coordinates:
                         L1                L2                L3
       atom_frac         0.01326581        0.00000000        0.00074008  O
       atom_frac        -0.10527765       -0.15386534       -0.00587332  H
       atom_frac        -0.10527762        0.15386529       -0.00587332  H

 
  Finished reading input file 'geometry.in'.
 

 
  Consistency checks for stacksize environment parameter are next.
 
  | Maximum stacksize for task 0: unlimited
  | Maximum stacksize for task 1: unlimited
  | Maximum stacksize for task 2: unlimited
  | Maximum stacksize for task 3: unlimited
  | Maximum stacksize for task 4: unlimited
  | Maximum stacksize for task 5: unlimited
  | Maximum stacksize for task 6: unlimited
  | Maximum stacksize for task 7: unlimited
  | Maximum stacksize for task 8: unlimited
  | Maximum stacksize for task 9: unlimited
  | Maximum stacksize for task 10: unlimited
  | Maximum stacksize for task 11: unlimited
  | Maximum stacksize for task 12: unlimited
  | Maximum stacksize for task 13: unlimited
  | Maximum stacksize for task 14: unlimited
  | Maximum stacksize for task 15: unlimited
  | Current stacksize for task 0: unlimited
  | Current stacksize for task 1: unlimited
  | Current stacksize for task 2: unlimited
  | Current stacksize for task 3: unlimited
  | Current stacksize for task 4: unlimited
  | Current stacksize for task 5: unlimited
  | Current stacksize for task 6: unlimited
  | Current stacksize for task 7: unlimited
  | Current stacksize for task 8: unlimited
  | Current stacksize for task 9: unlimited
  | Current stacksize for task 10: unlimited
  | Current stacksize for task 11: unlimited
  | Current stacksize for task 12: unlimited
  | Current stacksize for task 13: unlimited
  | Current stacksize for task 14: unlimited
  | Current stacksize for task 15: unlimited
 
  Consistency checks for the contents of control.in are next.
 
  MPI_IN_PLACE appears to work with this MPI implementation.
  | Keeping use_mpi_in_place .true. (see manual).
  Target number of points in a grid batch is not set. Defaulting to  100
  Method for grid partitioning is not set. Defaulting to parallel hash+maxmin partitioning.
  Batch size limit is not set. Defaulting to    200
  By default, will store active basis functions for each batch.
  If in need of memory, prune_basis_once .false. can be used to disable this option.
  communication_type for Hartree potential was not specified.
  Defaulting to calc_hartree .
  Defaulting to Pulay charge density mixer.
  Pulay mixer: Number of relevant iterations not set.
  Defaulting to    8 iterations.
  Pulay mixer: Number of initial linear mixing iterations not set.
  Defaulting to    0 iterations.
  Work space size for distributed Hartree potential not set.
  Defaulting to   0.200000E+03 MB.
  Mixing parameter for charge density mixing has not been set.
  Using default: charge_mix_param =     0.0500.
  The mixing parameter will be adjusted in iteration number     2 of the first full s.c.f. cycle only.
  Algorithm-dependent basis array size parameters:
  | n_max_pulay                         :        8
  Maximum number of self-consistency iterations not provided.
  Presetting  1000 iterations.
  Presetting      1001 iterations before the initial mixing cycle
  is restarted anyway using the sc_init_iter criterion / keyword.
  Presetting a factor      1.000 between actual scf density residual
  and density convergence criterion sc_accuracy_rho below which sc_init_iter
  takes no effect.
  Calculation of forces was not defined in control.in. No forces will be calculated.
  Geometry relaxation not requested: no relaxation will be performed.
  No accuracy limit for integral partition fn. given. Defaulting to  0.1000E-14.
  No occupation type (smearing scheme) given. Defaulting to Gaussian broadening, width =  0.1000E-01 eV.
  The width will be adjusted in iteration number     2 of the first full s.c.f. cycle only.
  S.C.F. convergence parameters will be adjusted in iteration number     2 of the first full s.c.f. cycle only.
  No accuracy for occupation numbers given. Defaulting to  0.1000E-12.
  No threshold value for occupation numbers given. Defaulting to  0.0000E+00.
  No accuracy for fermi level given. Defaulting to  0.1000E-19.
  Maximum # of iterations to find E_F not set. Defaulting to  200.
  Preferred method for the eigenvalue solver ('KS_method') not specified in 'control.in'.
  Calling BLACS routine to test compilation state
  Since ScaLAPACK support is enabled, defaulting to ELPA (via ELSI).
  Will not use alltoall communication since running on < 1024 CPUs.
  Threshold for basis singularities not set.
  Default threshold for basis singularities:  0.1000E-04
  partition_type (choice of integration weights) for integrals was not specified.
  | Using a version of the partition function of Stratmann and coworkers ('stratmann_sparse').
  | At each grid point, the set of atoms used to build the partition table is smoothly restricted to
  | only those atoms whose free-atom density would be non-zero at that grid point.
  Partitioning for Hartree potential was not defined. Using partition_type for integrals.
  | Adjusted default value of keyword multip_moments_threshold to:       0.10000000E-11
  | This value may affect high angular momentum components of the Hartree potential in periodic systems.
  Angular momentum expansion for Kerker preconditioner not set explicitly.
  | Using default value of   0
  No explicit requirement for turning off preconditioner.
  | By default, it will be turned off when the charge convergence reaches
  | sc_accuracy_rho  =   0.100000E-05
  No special mixing parameter while Kerker preconditioner is on.
  Using default: charge_mix_param =     0.0500.
  No q(lm)/r^(l+1) cutoff set for long-range Hartree potential.
  | Using default value of  0.100000E-09 .
  | Verify using the multipole_threshold keyword.
  Defaulting to new monopole extrapolation.
  Density update method: automatic selection selected.
  Using density matrix based charge density update.
  Using density matrix based charge density update.
  Using packed matrix style: index .
  Defaulting to use time-reversal symmetry for k-point grid.
  Charge integration errors on the 3D integration grid will be compensated
  by explicit normalization and distribution of residual charges.
  Use the "compensate_multipole_errors" flag to change this behaviour.
 
  Consistency checks for the contents of geometry.in are next.
 

  Range separation radius for Ewald summation (hartree_convergence_parameter):      5.00000000 bohr.
  Number of empty states per atom not set in control.in .
  | Since you are using a method that relies on the unoccupied spectrum
  | (MP2,GW,RPA et al.), will use the full Hamiltonian size (see below)
  | as the max. possible number of states (occupied plus empty).

  Structure-dependent array size parameters: 
  | Maximum number of distinct radial functions  :       18
  | Maximum number of basis functions            :       69
  | Number of Kohn-Sham states (occupied + empty):       69
------------------------------------------------------------

------------------------------------------------------------
          Preparing all fixed parts of the calculation.
------------------------------------------------------------
  Determining machine precision:
    2.225073858507201E-308
  Setting up grids for atomic and cluster calculations.

  Creating wave function, potential, and density for free atoms.
  Runtime choices for atomic solver:
  | atomic solver xc        : PBE
  | compute density gradient: 1
  | compute kinetic density : F

  Species: O

  List of occupied orbitals and eigenvalues:
    n    l              occ      energy [Ha]    energy [eV]
    1    0           2.0000       -18.898576      -514.2564
    2    0           2.0000        -0.878795       -23.9132
    2    1           4.0000        -0.332075        -9.0362


  Species: H

  List of occupied orbitals and eigenvalues:
    n    l              occ      energy [Ha]    energy [eV]
    1    0           1.0000        -0.238382        -6.4867


  Adding cutoff potential to free-atom effective potential.
  Creating fixed part of basis set: Ionic, confined, hydrogenic.
 
  O                    hydrogenic:
 
  List of hydrogenic basis orbitals: 
    n    l      effective z      eigenvalue [eV]  inner max. [A]     outer max. [A]     outer radius [A]   
    2    1         1.800000       -11.0118           1.178562           1.178562           5.567066
    3    2         7.600000       -87.3182           0.624125           0.624125           3.764702
    3    0         6.400000       -61.9209           0.061167           1.081902           4.522403
    4    3        11.600000      -114.4238           0.731631           0.731631           3.811008
    3    1         6.200000       -58.1113           0.255680           1.030270           4.522403
    3    2         5.600000       -47.4081           0.847233           0.847233           4.578029
    5    4        17.600000      -168.5799           0.749740           0.749740           3.629133
    1    0         0.750000        -7.6499           0.705284           0.705284           5.567066
 
 
  H                    hydrogenic:
 
  List of hydrogenic basis orbitals: 
    n    l      effective z      eigenvalue [eV]  inner max. [A]     outer max. [A]     outer radius [A]   
    2    0         2.100000       -14.9965           0.193243           1.317208           5.573719
    2    1         3.500000       -41.6672           0.602369           0.602369           4.259334
    1    0         0.850000        -9.8292           0.624871           0.624871           5.573719
    2    1         3.700000       -46.5653           0.573622           0.573622           4.105953
    2    0         1.200000        -4.5995           0.334980           2.228188           5.642276
    3    2         7.000000       -74.0753           0.680699           0.680699           3.958095
 
  Creating atomic-like basis functions for current effective potential.

  Species O                   :

  List of atomic basis orbitals and eigenvalues:
    n    l      energy [Ha]    energy [eV]    outer radius [A]
    1    0       -18.898576      -514.2564       1.807907
    2    0        -0.878795       -23.9132       5.366593
    2    1        -0.332075        -9.0362       5.499423


  Species H                   :

  List of atomic basis orbitals and eigenvalues:
    n    l      energy [Ha]    energy [eV]    outer radius [A]
    1    0        -0.238382        -6.4867       5.573719

  Assembling full basis from fixed parts.
  | Species O :   atomic orbital   1 s accepted.
  | Species O :    hydro orbital   3 s accepted.
  | Species O :   atomic orbital   2 s accepted.
  | Species O :    hydro orbital   1 s accepted.
  | Species O :    hydro orbital   3 p accepted.
  | Species O :   atomic orbital   2 p accepted.
  | Species O :    hydro orbital   2 p accepted.
  | Species O :    hydro orbital   3 d accepted.
  | Species O :    hydro orbital   3 d accepted.
  | Species O :    hydro orbital   4 f accepted.
  | Species O :    hydro orbital   5 g accepted.
  | Species H :   atomic orbital   1 s accepted.
  | Species H :    hydro orbital   2 s accepted.
  | Species H :    hydro orbital   1 s accepted.
  | Species H :    hydro orbital   2 s accepted.
  | Species H :    hydro orbital   2 p accepted.
  | Species H :    hydro orbital   2 p accepted.
  | Species H :    hydro orbital   3 d accepted.
 
  Basis size parameters after reduction:
  | Total number of radial functions:       18
  | Total number of basis functions :       69
 
  Per-task memory consumption for arrays in subroutine allocate_ext:
  |           4.499020MB.
  Testing on-site integration grid accuracy.
  |  Species  Function  <phi|h_atom|phi> (log., in eV)  <phi|h_atom|phi> (rad., in eV)
           1        1               -514.2564144315               -514.2564099626
           1        2                 15.1726678541                 15.1726530877
           1        3                -21.5447785304                -21.5447874973
           1        4                 14.4944558459                 14.4944698284
           1        5                 20.8882174564                 20.8882178906
           1        6                 -2.4850315909                 -2.4850322289
           1        7                 13.8600193195                 13.8599826966
           1        8                 45.8243383616                 45.8243383675
           1        9                 52.1840606465                 52.1840622440
           1       10                 85.4074185510                 85.4074185819
           1       11                142.0983717302                142.0983717339
           2       12                 -6.4869821809                 -6.4870742227
           2       13                 13.5044133542                 13.5041049177
           2       14                 32.7854418792                 32.7779770519
           2       15                 33.7995553101                 33.7152624900 ***
           2       16                 28.8558651799                 28.8558652046
           2       17                 59.6361831893                 59.6362535845
           2       18                 60.2733718049                 60.2733715484
 * Note: Onsite integrals marked "***" above are less accurate than
 * onsite_accuracy_threshold =    0.03000 eV. Usually, this is harmless.
 * When in doubt, tighten the "radial" and/or "radial_multiplier" flags to check.

  Preparing densities etc. for the partition functions (integrals / Hartree potential).

  Preparations completed.
  max(cpu_time)          :      0.144 s.
  Wall clock time (cpu1) :      0.161 s.
------------------------------------------------------------

  Initializing index lists of integration centers etc. from given atomic structure:
  Mapping all atomic coordinates to central unit cell.

  Initializing the k-points
  Using symmetry for reducing the k-points
  | k-points reduced from:        1 to        1
  | Number of k-points                             :         1
  | Consuming          0 KiB for k_phase_exx.
  The eigenvectors in the calculations are REAL.
  | Number of basis functions in the Hamiltonian integrals :      1567
  | Number of basis functions in a single unit cell        :        69
  | Number of centers in hartree potential         :       657
  | Number of centers in hartree multipole         :       243
  | Number of centers in electron density summation:       191
  | Number of centers in basis integrals           :       207
  | Number of centers in integrals                 :        81
  | Number of centers in hamiltonian               :       191
  | Consuming          1 KiB for k_phase.
  | Number of super-cells (origin) [n_cells]                     :        1331
  | Number of super-cells (after PM_index) [n_cells]             :          74
  | Number of super-cells in hamiltonian [n_cells_in_hamiltonian]:          74
  | Size of matrix packed + index [n_hamiltonian_matrix_size] :       62640
  | Size of matrix packed + index (no_symmetry):      123282

------------------------------------------------------------
          Begin self-consistency loop: Initialization.

          Date     :  20221003, Time     :  100727.322
------------------------------------------------------------
  | Estimated reciprocal-space cutoff momentum G_max:         1.90186217 bohr^-1 .
  | Reciprocal lattice points for long-range Hartree potential:      92
  Using simple linear distribution as default method for k-point parallelism.
  * Using 16 tasks for Scalapack Eigenvalue solver.
  Detailed listing of tasks and assigned k-points:
   Task     0 k-point     1 on mpsd-hpc-ibm-056
   Task     1 k-point     1 on mpsd-hpc-ibm-056
   Task     2 k-point     1 on mpsd-hpc-ibm-056
   Task     3 k-point     1 on mpsd-hpc-ibm-056
   Task     4 k-point     1 on mpsd-hpc-ibm-057
   Task     5 k-point     1 on mpsd-hpc-ibm-057
   Task     6 k-point     1 on mpsd-hpc-ibm-057
   Task     7 k-point     1 on mpsd-hpc-ibm-057
   Task     8 k-point     1 on mpsd-hpc-ibm-058
   Task     9 k-point     1 on mpsd-hpc-ibm-058
   Task    10 k-point     1 on mpsd-hpc-ibm-058
   Task    11 k-point     1 on mpsd-hpc-ibm-058
   Task    12 k-point     1 on mpsd-hpc-ibm-059
   Task    13 k-point     1 on mpsd-hpc-ibm-059
   Task    14 k-point     1 on mpsd-hpc-ibm-059
   Task    15 k-point     1 on mpsd-hpc-ibm-059
  K-point:     1 Tasks:    16 split into      4 X      4 BLACS grid
  Calculating block size based on n_basis =           69  max_nprow =            4  max_npcol =            4
  ScaLAPACK block size set to:           16
  Allocating        0.003 MB for ovlp
  Allocating        0.003 MB for ham
  Allocating        0.003 MB for eigenvec
  Required Scalapack workspace - INTEGER:            1  REAL:             1
  Partitioning the integration grid into batches with parallel hashing+maxmin method.
  | Number of batches:      508
  | Maximal batch size:     166
  | Minimal batch size:      50
  | Average batch size:      92.303
  | Standard deviation of batch sizes:      24.101

  Integration load balanced across    16 MPI tasks.
  Work distribution over tasks is as follows:
  Task     0 has       2916 integration points.
  Task     1 has       2903 integration points.
  Task     2 has       2941 integration points.
  Task     3 has       2907 integration points.
  Task     4 has       2922 integration points.
  Task     5 has       2915 integration points.
  Task     6 has       2923 integration points.
  Task     7 has       2988 integration points.
  Task     8 has       2952 integration points.
  Task     9 has       2956 integration points.
  Task    10 has       2909 integration points.
  Task    11 has       2899 integration points.
  Task    12 has       2959 integration points.
  Task    13 has       2950 integration points.
  Task    14 has       2903 integration points.
  Task    15 has       2947 integration points.
  Initializing partition tables, free-atom densities, potentials, etc. across the integration grid (initialize_grid_storage).
  | initialize_grid_storage: Actual outermost partition radius vs. multipole_radius_free
  | (-- VB: in principle, multipole_radius_free should be larger, hence this output)
  | Species        1: Confinement radius =              6.000000000000000 AA, multipole_radius_free =              6.064445521808699 AA.
  | Species        1: outer_partition_radius set to              6.064445521808699 AA .
  | Species        2: Confinement radius =              6.000000000000000 AA, multipole_radius_free =              6.071692442739658 AA.
  | Species        2: outer_partition_radius set to              6.071692442739658 AA .
  | The sparse table of interatomic distances needs        416.27 kbyte instead of       342.79 kbyte of memory.
  | Using the partition_type stratmann_smoother will reduce your memory usage.
  | Net number of integration points:    46890
  | of which are non-zero points    :    37569
  | Numerical average free-atom electrostatic potential    :     -1.29049423 eV
  Renormalizing the initial density to the exact electron count on the 3D integration grid.
  | Initial density: Formal number of electrons (from input files) :      10.0000000000
  | Integrated number of electrons on 3D grid     :      10.0000061253
  | Charge integration error                      :       0.0000061253
  | Normalization factor for density and gradient :       0.9999993875
  Renormalizing the free-atom superposition density to the exact electron count on the 3D integration grid.
  | Formal number of electrons (from input files) :      10.0000000000
  | Integrated number of electrons on 3D grid     :      10.0000061253
  | Charge integration error                      :       0.0000061253
  | Normalization factor for density and gradient :       0.9999993875
  Obtaining max. number of non-zero basis functions in each batch (get_n_compute_maxes).
  | Maximal number of non-zero basis functions:      383 in task     0
  | Maximal number of non-zero basis functions:      395 in task     1
  | Maximal number of non-zero basis functions:      355 in task     2
  | Maximal number of non-zero basis functions:      431 in task     3
  | Maximal number of non-zero basis functions:      378 in task     4
  | Maximal number of non-zero basis functions:      431 in task     5
  | Maximal number of non-zero basis functions:      355 in task     6
  | Maximal number of non-zero basis functions:      390 in task     7
  | Maximal number of non-zero basis functions:      431 in task     8
  | Maximal number of non-zero basis functions:      378 in task     9
  | Maximal number of non-zero basis functions:      377 in task    10
  | Maximal number of non-zero basis functions:      347 in task    11
  | Maximal number of non-zero basis functions:      431 in task    12
  | Maximal number of non-zero basis functions:      390 in task    13
  | Maximal number of non-zero basis functions:      345 in task    14
  | Maximal number of non-zero basis functions:      383 in task    15
  Integrating Hamiltonian matrix: batch-based integration.
  Time summed over all CPUs for integration: real work        1.081 s, elapsed        1.188 s
  Integrating overlap matrix.
  Time summed over all CPUs for integration: real work        0.610 s, elapsed        0.669 s
  Deallocating overlap matrix.

  Updating Kohn-Sham eigenvalues and eigenvectors using ELSI and the ELPA eigensolver.
  Singularity check in k-point 1 (analysis for other k-points may follow below):
  Overlap matrix is not singular
  | Lowest and highest eigenvalues :  0.2542E-03,  0.6946E+01
  Finished singularity check of overlap matrix
  | Time :     0.003 s
  Starting ELPA eigensolver
  Finished Cholesky decomposition
  | Time :     0.002 s
  Finished transformation to standard eigenproblem
  | Time :     0.001 s
  Finished solving standard eigenproblem
  | Time :     0.004 s
  Finished back-transformation of eigenvectors
  | Time :     0.001 s

  Obtaining occupation numbers and electronic chemical potential using ELSI.
  | Note that, for insulating systems, the printed 'chemical potential' value is not uniquely defined.
  | It can be anywhere in the energy gap, as long as it correctly separates occupied and unoccupied states.
  | In systems with a gap, the physically relevant chemical potential is the VBM or HOMO.

  | Chemical potential (Fermi level):   -11.14490457 eV
  Writing Kohn-Sham eigenvalues.

  State    Occupation    Eigenvalue [Ha]    Eigenvalue [eV]
      1       2.00000         -19.004382         -517.13554
      2       2.00000          -1.094985          -29.79607
      3       2.00000          -0.627088          -17.06393
      4       2.00000          -0.508427          -13.83501
      5       2.00000          -0.436487          -11.87741
      6       0.00000          -0.113921           -3.09993
      7       0.00000           0.057939            1.57661
      8       0.00000           0.084925            2.31092
      9       0.00000           0.187306            5.09685
     10       0.00000           0.201370            5.47955
     11       0.00000           0.205564            5.59368
     12       0.00000           0.330598            8.99602
     13       0.00000           0.429890           11.69791
     14       0.00000           0.438671           11.93683
     15       0.00000           0.448564           12.20604
     16       0.00000           0.516467           14.05378
     17       0.00000           0.590423           16.06624
     18       0.00000           0.607757           16.53790
     19       0.00000           0.892422           24.28404
     20       0.00000           0.941459           25.61840
     21       0.00000           1.069050           29.09032
     22       0.00000           1.078876           29.35771
     23       0.00000           1.091455           29.69999
     24       0.00000           1.133821           30.85284
     25       0.00000           1.381496           37.59242
     26       0.00000           1.401231           38.12945
     27       0.00000           1.431575           38.95514
     28       0.00000           1.745895           47.50822
     29       0.00000           2.092175           56.93098
     30       0.00000           2.156550           58.68272
     31       0.00000           2.158240           58.72869
     32       0.00000           2.265920           61.65882
     33       0.00000           2.329260           63.38238
     34       0.00000           2.463393           67.03235
     35       0.00000           2.668844           72.62294
     36       0.00000           2.691552           73.24085
     37       0.00000           2.786488           75.82421
     38       0.00000           2.830383           77.01865
     39       0.00000           3.008974           81.87834
     40       0.00000           3.147669           85.65243
     41       0.00000           3.331947           90.66688
     42       0.00000           3.343498           90.98122
     43       0.00000           3.447562           93.81295
     44       0.00000           3.518070           95.73157
     45       0.00000           3.663073           99.67728
     46       0.00000           3.668886           99.83547
     47       0.00000           3.810119          103.67863
     48       0.00000           3.984133          108.41377
     49       0.00000           4.098367          111.52224
     50       0.00000           4.212944          114.64003
     51       0.00000           4.301574          117.05179
     52       0.00000           5.109933          139.04835
     53       0.00000           5.190403          141.23804
     54       0.00000           5.325087          144.90299
     55       0.00000           5.337364          145.23707
     56       0.00000           5.482371          149.18289
     57       0.00000           5.539920          150.74889
     58       0.00000           5.729203          155.89955
     59       0.00000           5.756223          156.63479
     60       0.00000           6.110810          166.28361
     61       0.00000           6.243777          169.90182
     62       0.00000           6.951456          189.15875
     63       0.00000           7.045086          191.70655
     64       0.00000           7.288174          198.32130
     65       0.00000           7.292626          198.44244
     66       0.00000           7.452844          202.80220
     67       0.00000           7.639786          207.88915
     68       0.00000           8.353115          227.29982
     69       0.00000           8.671621          235.96680

  Highest occupied state (VBM) at    -11.87741316 eV (relative to internal zero)
  | Occupation number:      2.00000000
  | K-point:       1 at    0.000000    0.000000    0.000000 (in units of recip. lattice)

  Lowest unoccupied state (CBM) at    -3.09993495 eV (relative to internal zero)
  | Occupation number:      0.00000000
  | K-point:       1 at    0.000000    0.000000    0.000000 (in units of recip. lattice)

  ESTIMATED overall HOMO-LUMO gap:      8.77747821 eV between HOMO at k-point 1 and LUMO at k-point 1
  The gap value is above 0.2 eV. Unless you are using a very sparse k-point grid,
  this system is most likely an insulator or a semiconductor.
  Calculating total energy contributions from superposition of free atom densities.

  Total energy components:
  | Sum of eigenvalues            :         -43.34273875 Ha       -1179.41592939 eV
  | XC energy correction          :          -9.01205911 Ha        -245.23060566 eV
  | XC potential correction       :          11.58737840 Ha         315.30860903 eV
  | Free-atom electrostatic energy:         -35.69288185 Ha        -971.25273193 eV
  | Hartree energy correction     :           0.00000000 Ha           0.00000000 eV
  | Entropy correction            :           0.00000000 Ha           0.00000000 eV
  | ---------------------------
  | Total energy                  :         -76.46030131 Ha       -2080.59065795 eV
  | Total energy, T -> 0          :         -76.46030131 Ha       -2080.59065795 eV  <-- do not rely on this value for anything but (periodic) metals
  | Electronic free energy        :         -76.46030131 Ha       -2080.59065795 eV

  Derived energy quantities:
  | Kinetic energy                :          75.52284397 Ha        2055.08114577 eV
  | Electrostatic energy          :        -142.97108617 Ha       -3890.44119806 eV
  | Energy correction for multipole
  | error in Hartree potential    :           0.00000000 Ha           0.00000000 eV
  | Sum of eigenvalues per atom                           :        -393.13864313 eV
  | Total energy (T->0) per atom                          :        -693.53021932 eV  <-- do not rely on this value for anything but (periodic) metals
  | Electronic free energy per atom                       :        -693.53021932 eV
  Initialize hartree_potential_storage
  Max. number of atoms included in rho_multipole:            3

  End scf initialization - timings             :  max(cpu_time)    wall_clock(cpu1)
  | Time for scf. initialization                :        0.312 s           0.312 s
  | Boundary condition initialization           :        0.048 s           0.047 s
  | Integration                                 :        0.124 s           0.121 s
  | Solution of K.-S. eqns.                     :        0.016 s           0.014 s
  | Grid partitioning                           :        0.076 s           0.075 s
  | Preloading free-atom quantities on grid     :        0.084 s           0.080 s
  | Free-atom superposition energy              :        0.012 s           0.011 s
  | Total energy evaluation                     :        0.000 s           0.001 s

  Partial memory accounting:
  | Current value for overall tracked memory usage:
  |   Minimum:        0.723 MB (on task  5)
  |   Maximum:        0.728 MB (on task  0)
  |   Average:        0.724 MB
  | Peak value for overall tracked memory usage:
  |   Minimum:        3.428 MB (on task 14 after allocating wave)
  |   Maximum:        4.268 MB (on task  3 after allocating wave)
  |   Average:        3.835 MB
  | Largest tracked array allocation so far:
  |   Minimum:        0.908 MB (hamiltonian_shell on task 14)
  |   Maximum:        1.417 MB (hamiltonian_shell on task  3)
  |   Average:        1.152 MB
  Note:  These values currently only include a subset of arrays which are explicitly tracked.
  The "true" memory usage will be greater.
------------------------------------------------------------
  Evaluating new KS density using the density matrix
  Evaluating density matrix
  Finished density matrix calculation
  | Time :     0.000 s
  Time summed over all CPUs for getting density from density matrix: real work        2.106 s, elapsed        2.846 s
  Integration grid: deviation in total charge (<rho> - N_e) =  -3.552714E-15

  Time for density update prior                :  max(cpu_time)    wall_clock(cpu1)
  | self-consistency iterative process          :        0.184 s           0.181 s

------------------------------------------------------------
          Begin self-consistency iteration #    1

  Date     :  20221003, Time     :  100727.819
------------------------------------------------------------
  Pulay mixing of updated and previous charge densities.
  Renormalizing the density to the exact electron count on the 3D integration grid.
  | Formal number of electrons (from input files) :      10.0000000000
  | Integrated number of electrons on 3D grid     :       9.9996496371
  | Charge integration error                      :      -0.0003503629
  | Normalization factor for density and gradient :       1.0000350375

  Evaluating partitioned Hartree potential by multipole expansion.
  | Original multipole sum: apparent total charge =   0.595880E-14
  | Sum of charges compensated after spline to logarithmic grids =   0.900140E-07
  | Analytical far-field extrapolation by fixed multipoles:
  | Hartree multipole sum: apparent total charge =   0.599262E-14
  Summing up the Hartree potential.
  Time summed over all CPUs for potential: real work        2.406 s, elapsed        2.533 s
  | RMS charge density error from multipole expansion :   0.117456E-03
  | Average real-space part of the electrostatic potential :      0.00957439 eV

  Integrating Hamiltonian matrix: batch-based integration.
  Time summed over all CPUs for integration: real work        1.049 s, elapsed        1.145 s

  Updating Kohn-Sham eigenvalues and eigenvectors using ELSI and the ELPA eigensolver.
  Starting ELPA eigensolver
  Finished transformation to standard eigenproblem
  | Time :     0.001 s
  Finished solving standard eigenproblem
  | Time :     0.005 s
  Finished back-transformation of eigenvectors
  | Time :     0.000 s

  Obtaining occupation numbers and electronic chemical potential using ELSI.
  | Note that, for insulating systems, the printed 'chemical potential' value is not uniquely defined.
  | It can be anywhere in the energy gap, as long as it correctly separates occupied and unoccupied states.
  | In systems with a gap, the physically relevant chemical potential is the VBM or HOMO.

  | Chemical potential (Fermi level):   -10.67700199 eV
  Writing Kohn-Sham eigenvalues.

  State    Occupation    Eigenvalue [Ha]    Eigenvalue [eV]
      1       2.00000         -18.974482         -516.32191
      2       2.00000          -1.081134          -29.41914
      3       2.00000          -0.615263          -16.74215
      4       2.00000          -0.494290          -13.45032
      5       2.00000          -0.421636          -11.47329
      6       0.00000          -0.112467           -3.06039
      7       0.00000           0.062096            1.68973
      8       0.00000           0.087633            2.38462
      9       0.00000           0.190482            5.18328
     10       0.00000           0.203031            5.52476
     11       0.00000           0.208136            5.66368
     12       0.00000           0.332688            9.05291
     13       0.00000           0.432407           11.76639
     14       0.00000           0.441517           12.01429
     15       0.00000           0.451416           12.28365
     16       0.00000           0.520104           14.15274
     17       0.00000           0.594453           16.17589
     18       0.00000           0.610071           16.60089
     19       0.00000           0.893844           24.32274
     20       0.00000           0.944690           25.70632
     21       0.00000           1.073204           29.20337
     22       0.00000           1.082740           29.46286
     23       0.00000           1.096249           29.83045
     24       0.00000           1.140311           31.02945
     25       0.00000           1.387003           37.74228
     26       0.00000           1.410299           38.37619
     27       0.00000           1.442648           39.25646
     28       0.00000           1.752900           47.69883
     29       0.00000           2.097106           57.06515
     30       0.00000           2.162257           58.83801
     31       0.00000           2.163659           58.87616
     32       0.00000           2.273790           61.87296
     33       0.00000           2.333906           63.50880
     34       0.00000           2.472549           67.28148
     35       0.00000           2.673379           72.74635
     36       0.00000           2.697756           73.40968
     37       0.00000           2.792546           75.98905
     38       0.00000           2.833593           77.10600
     39       0.00000           3.020285           82.18614
     40       0.00000           3.157314           85.91489
     41       0.00000           3.337618           90.82120
     42       0.00000           3.351256           91.19232
     43       0.00000           3.454103           93.99093
     44       0.00000           3.523921           95.89077
     45       0.00000           3.672831           99.94280
     46       0.00000           3.674309           99.98304
     47       0.00000           3.817388          103.87640
     48       0.00000           3.995231          108.71576
     49       0.00000           4.100964          111.59291
     50       0.00000           4.222458          114.89893
     51       0.00000           4.311705          117.32745
     52       0.00000           5.119023          139.29570
     53       0.00000           5.198074          141.44680
     54       0.00000           5.333142          145.12218
     55       0.00000           5.345714          145.46427
     56       0.00000           5.488234          149.34245
     57       0.00000           5.549124          150.99935
     58       0.00000           5.737368          156.12173
     59       0.00000           5.765260          156.88072
     60       0.00000           6.120300          166.54184
     61       0.00000           6.253658          170.17068
     62       0.00000           6.959777          189.38516
     63       0.00000           7.051866          191.89105
     64       0.00000           7.299406          198.62695
     65       0.00000           7.303768          198.74564
     66       0.00000           7.464112          203.10883
     67       0.00000           7.650852          208.19026
     68       0.00000           8.363747          227.58914
     69       0.00000           8.682611          236.26586

  Highest occupied state (VBM) at    -11.47328901 eV (relative to internal zero)
  | Occupation number:      2.00000000
  | K-point:       1 at    0.000000    0.000000    0.000000 (in units of recip. lattice)

  Lowest unoccupied state (CBM) at    -3.06038610 eV (relative to internal zero)
  | Occupation number:      0.00000000
  | K-point:       1 at    0.000000    0.000000    0.000000 (in units of recip. lattice)

  ESTIMATED overall HOMO-LUMO gap:      8.41290291 eV between HOMO at k-point 1 and LUMO at k-point 1
  The gap value is above 0.2 eV. Unless you are using a very sparse k-point grid,
  this system is most likely an insulator or a semiconductor.

  Total energy components:
  | Sum of eigenvalues            :         -43.17360735 Ha       -1174.81362994 eV
  | XC energy correction          :          -9.03184499 Ha        -245.76900690 eV
  | XC potential correction       :          11.61309163 Ha         316.00830147 eV
  | Free-atom electrostatic energy:         -35.69288185 Ha        -971.25273193 eV
  | Hartree energy correction     :          -0.16136523 Ha          -4.39097134 eV
  | Entropy correction            :           0.00000000 Ha           0.00000000 eV
  | ---------------------------
  | Total energy                  :         -76.44660780 Ha       -2080.21803864 eV
  | Total energy, T -> 0          :         -76.44660780 Ha       -2080.21803864 eV  <-- do not rely on this value for anything but (periodic) metals
  | Electronic free energy        :         -76.44660780 Ha       -2080.21803864 eV

  Derived energy quantities:
  | Kinetic energy                :          75.64849606 Ha        2058.50031308 eV
  | Electrostatic energy          :        -143.06325887 Ha       -3892.94934482 eV
  | Energy correction for multipole
  | error in Hartree potential    :          -0.00012063 Ha          -0.00328257 eV
  | Sum of eigenvalues per atom                           :        -391.60454331 eV
  | Total energy (T->0) per atom                          :        -693.40601288 eV  <-- do not rely on this value for anything but (periodic) metals
  | Electronic free energy per atom                       :        -693.40601288 eV
  Evaluating new KS density using the density matrix
  Evaluating density matrix
  Finished density matrix calculation
  | Time :     0.000 s
  Time summed over all CPUs for getting density from density matrix: real work        2.139 s, elapsed        2.537 s
  Integration grid: deviation in total charge (<rho> - N_e) =   0.000000E+00

  Self-consistency convergence accuracy:
  | Change of charge density      :  0.3156E+00
  | Change of unmixed KS density  :  0.9104E+01
  | Change of sum of eigenvalues  :  0.4602E+01 eV
  | Change of total energy        :  0.3726E+00 eV


------------------------------------------------------------
  End self-consistency iteration #     1       :  max(cpu_time)    wall_clock(cpu1)
  | Time for this iteration                     :        0.500 s           0.498 s
  | Charge density update                       :        0.164 s           0.161 s
  | Density mixing & preconditioning            :        0.076 s           0.076 s
  | Hartree multipole update                    :        0.004 s           0.003 s
  | Hartree multipole summation                 :        0.172 s           0.169 s
  | Integration                                 :        0.076 s           0.074 s
  | Solution of K.-S. eqns.                     :        0.008 s           0.007 s
  | Total energy evaluation                     :        0.008 s           0.002 s

  Partial memory accounting:
  | Current value for overall tracked memory usage:
  |   Minimum:        0.723 MB (on task  5)
  |   Maximum:        0.728 MB (on task  0)
  |   Average:        0.724 MB
  | Peak value for overall tracked memory usage:
  |   Minimum:        4.253 MB (on task 14 after allocating gradient_basis_wave)
  |   Maximum:        5.418 MB (on task  3 after allocating gradient_basis_wave)
  |   Average:        4.821 MB
  | Largest tracked array allocation so far:
  |   Minimum:        1.311 MB (gradient_basis_wave on task 14)
  |   Maximum:        1.638 MB (gradient_basis_wave on task  3)
  |   Average:        1.472 MB
  Note:  These values currently only include a subset of arrays which are explicitly tracked.
  The "true" memory usage will be greater.
------------------------------------------------------------

------------------------------------------------------------
          Begin self-consistency iteration #    2

  Date     :  20221003, Time     :  100728.320
------------------------------------------------------------
  Pulay mixing of updated and previous charge densities.
  Renormalizing the density to the exact electron count on the 3D integration grid.
  | Formal number of electrons (from input files) :      10.0000000000
  | Integrated number of electrons on 3D grid     :       9.9970664223
  | Charge integration error                      :      -0.0029335777
  | Normalization factor for density and gradient :       1.0002934439

  Evaluating partitioned Hartree potential by multipole expansion.
  | Original multipole sum: apparent total charge =   0.264426E-14
  | Sum of charges compensated after spline to logarithmic grids =   0.789078E-06
  | Analytical far-field extrapolation by fixed multipoles:
  | Hartree multipole sum: apparent total charge =   0.257046E-14
  Summing up the Hartree potential.
  Time summed over all CPUs for potential: real work        2.769 s, elapsed        2.921 s
  | RMS charge density error from multipole expansion :   0.106284E-02
  | Average real-space part of the electrostatic potential :      0.08539960 eV

  Integrating Hamiltonian matrix: batch-based integration.
  Time summed over all CPUs for integration: real work        1.068 s, elapsed        1.175 s

  Updating Kohn-Sham eigenvalues and eigenvectors using ELSI and the ELPA eigensolver.
  Starting ELPA eigensolver
  Finished transformation to standard eigenproblem
  | Time :     0.001 s
  Finished solving standard eigenproblem
  | Time :     0.004 s
  Finished back-transformation of eigenvectors
  | Time :     0.001 s

  Obtaining occupation numbers and electronic chemical potential using ELSI.
  | Note that, for insulating systems, the printed 'chemical potential' value is not uniquely defined.
  | It can be anywhere in the energy gap, as long as it correctly separates occupied and unoccupied states.
  | In systems with a gap, the physically relevant chemical potential is the VBM or HOMO.

  | Chemical potential (Fermi level):    -7.10227380 eV
  Highest occupied state (VBM) at     -8.46578420 eV (relative to internal zero)
  | Occupation number:      2.00000000
  | K-point:       1 at    0.000000    0.000000    0.000000 (in units of recip. lattice)

  Lowest unoccupied state (CBM) at    -2.74233095 eV (relative to internal zero)
  | Occupation number:      0.00000000
  | K-point:       1 at    0.000000    0.000000    0.000000 (in units of recip. lattice)

  ESTIMATED overall HOMO-LUMO gap:      5.72345325 eV between HOMO at k-point 1 and LUMO at k-point 1
  The gap value is above 0.2 eV. Unless you are using a very sparse k-point grid,
  this system is most likely an insulator or a semiconductor.

  Checking to see if s.c.f. parameters should be adjusted.
  The system likely has a gap. Increased the default Pulay mixing parameter (charge_mix_param). Value:   0.200000 .
  Kept the default occupation width. Value:   0.010000 eV.

  Total energy components:
  | Sum of eigenvalues            :         -41.90829646 Ha       -1140.38276861 eV
  | XC energy correction          :          -9.18794793 Ha        -250.01678379 eV
  | XC potential correction       :          11.81594233 Ha         321.52815009 eV
  | Free-atom electrostatic energy:         -35.69288185 Ha        -971.25273193 eV
  | Hartree energy correction     :          -1.41653691 Ha         -38.54593052 eV
  | Entropy correction            :           0.00000000 Ha           0.00000000 eV
  | ---------------------------
  | Total energy                  :         -76.38972081 Ha       -2078.67006475 eV
  | Total energy, T -> 0          :         -76.38972081 Ha       -2078.67006475 eV  <-- do not rely on this value for anything but (periodic) metals
  | Electronic free energy        :         -76.38972081 Ha       -2078.67006475 eV

  Derived energy quantities:
  | Kinetic energy                :          76.51462666 Ha        2082.06892584 eV
  | Electrostatic energy          :        -143.71639954 Ha       -3910.72220681 eV
  | Energy correction for multipole
  | error in Hartree potential    :          -0.00105941 Ha          -0.02882804 eV
  | Sum of eigenvalues per atom                           :        -380.12758954 eV
  | Total energy (T->0) per atom                          :        -692.89002158 eV  <-- do not rely on this value for anything but (periodic) metals
  | Electronic free energy per atom                       :        -692.89002158 eV
  Evaluating new KS density using the density matrix
  Evaluating density matrix
  Finished density matrix calculation
  | Time :     0.000 s
  Time summed over all CPUs for getting density from density matrix: real work        2.042 s, elapsed        2.385 s
  Integration grid: deviation in total charge (<rho> - N_e) =   5.329071E-15

  Self-consistency convergence accuracy:
  | Change of charge density      :  0.2847E+00
  | Change of unmixed KS density  :  0.2326E-01
  | Change of sum of eigenvalues  :  0.3443E+02 eV
  | Change of total energy        :  0.1548E+01 eV


------------------------------------------------------------
  End self-consistency iteration #     2       :  max(cpu_time)    wall_clock(cpu1)
  | Time for this iteration                     :        0.532 s           0.530 s
  | Charge density update                       :        0.152 s           0.152 s
  | Density mixing & preconditioning            :        0.096 s           0.095 s
  | Hartree multipole update                    :        0.004 s           0.003 s
  | Hartree multipole summation                 :        0.196 s           0.195 s
  | Integration                                 :        0.076 s           0.076 s
  | Solution of K.-S. eqns.                     :        0.008 s           0.006 s
  | Total energy evaluation                     :        0.004 s           0.002 s

  Partial memory accounting:
  | Current value for overall tracked memory usage:
  |   Minimum:        0.724 MB (on task  5)
  |   Maximum:        0.728 MB (on task  0)
  |   Average:        0.725 MB
  | Peak value for overall tracked memory usage:
  |   Minimum:        4.254 MB (on task 14 after allocating gradient_basis_wave)
  |   Maximum:        5.418 MB (on task  3 after allocating gradient_basis_wave)
  |   Average:        4.822 MB
  | Largest tracked array allocation so far:
  |   Minimum:        1.311 MB (gradient_basis_wave on task 14)
  |   Maximum:        1.638 MB (gradient_basis_wave on task  3)
  |   Average:        1.472 MB
  Note:  These values currently only include a subset of arrays which are explicitly tracked.
  The "true" memory usage will be greater.
------------------------------------------------------------

------------------------------------------------------------
          Begin self-consistency iteration #    3

  Date     :  20221003, Time     :  100728.853
------------------------------------------------------------
  Pulay mixing of updated and previous charge densities.
  Renormalizing the density to the exact electron count on the 3D integration grid.
  | Formal number of electrons (from input files) :      10.0000000000
  | Integrated number of electrons on 3D grid     :       9.9981326617
  | Charge integration error                      :      -0.0018673383
  | Normalization factor for density and gradient :       1.0001867687

  Evaluating partitioned Hartree potential by multipole expansion.
  | Original multipole sum: apparent total charge =   0.450139E-14
  | Sum of charges compensated after spline to logarithmic grids =   0.552222E-06
  | Analytical far-field extrapolation by fixed multipoles:
  | Hartree multipole sum: apparent total charge =   0.468587E-14
  Summing up the Hartree potential.
  Time summed over all CPUs for potential: real work        2.809 s, elapsed        2.963 s
  | RMS charge density error from multipole expansion :   0.158817E-02
  | Average real-space part of the electrostatic potential :      0.09565774 eV

  Integrating Hamiltonian matrix: batch-based integration.
  Time summed over all CPUs for integration: real work        1.092 s, elapsed        1.428 s => Consider using load balancing!

  Updating Kohn-Sham eigenvalues and eigenvectors using ELSI and the ELPA eigensolver.
  Starting ELPA eigensolver
  Finished transformation to standard eigenproblem
  | Time :     0.001 s
  Finished solving standard eigenproblem
  | Time :     0.004 s
  Finished back-transformation of eigenvectors
  | Time :     0.001 s

  Obtaining occupation numbers and electronic chemical potential using ELSI.
  | Note that, for insulating systems, the printed 'chemical potential' value is not uniquely defined.
  | It can be anywhere in the energy gap, as long as it correctly separates occupied and unoccupied states.
  | In systems with a gap, the physically relevant chemical potential is the VBM or HOMO.

  | Chemical potential (Fermi level):    -8.02009033 eV
  Highest occupied state (VBM) at     -8.95778745 eV (relative to internal zero)
  | Occupation number:      2.00000000
  | K-point:       1 at    0.000000    0.000000    0.000000 (in units of recip. lattice)

  Lowest unoccupied state (CBM) at    -2.76018974 eV (relative to internal zero)
  | Occupation number:      0.00000000
  | K-point:       1 at    0.000000    0.000000    0.000000 (in units of recip. lattice)

  ESTIMATED overall HOMO-LUMO gap:      6.19759771 eV between HOMO at k-point 1 and LUMO at k-point 1
  The gap value is above 0.2 eV. Unless you are using a very sparse k-point grid,
  this system is most likely an insulator or a semiconductor.

  Total energy components:
  | Sum of eigenvalues            :         -42.19454020 Ha       -1148.17185721 eV
  | XC energy correction          :          -9.15285064 Ha        -249.06173804 eV
  | XC potential correction       :          11.77088156 Ha         320.30198412 eV
  | Free-atom electrostatic energy:         -35.69288185 Ha        -971.25273193 eV
  | Hartree energy correction     :          -1.12385138 Ha         -30.58155202 eV
  | Entropy correction            :           0.00000000 Ha           0.00000000 eV
  | ---------------------------
  | Total energy                  :         -76.39324251 Ha       -2078.76589507 eV
  | Total energy, T -> 0          :         -76.39324251 Ha       -2078.76589507 eV  <-- do not rely on this value for anything but (periodic) metals
  | Electronic free energy        :         -76.39324251 Ha       -2078.76589507 eV

  Derived energy quantities:
  | Kinetic energy                :          76.06618697 Ha        2069.86626105 eV
  | Electrostatic energy          :        -143.30657884 Ha       -3899.57041808 eV
  | Energy correction for multipole
  | error in Hartree potential    :          -0.00076244 Ha          -0.02074695 eV
  | Sum of eigenvalues per atom                           :        -382.72395240 eV
  | Total energy (T->0) per atom                          :        -692.92196502 eV  <-- do not rely on this value for anything but (periodic) metals
  | Electronic free energy per atom                       :        -692.92196502 eV
  Evaluating new KS density using the density matrix
  Evaluating density matrix
  Finished density matrix calculation
  | Time :     0.000 s
  Time summed over all CPUs for getting density from density matrix: real work        2.074 s, elapsed        2.496 s
  Integration grid: deviation in total charge (<rho> - N_e) =  -3.552714E-15

  Self-consistency convergence accuracy:
  | Change of charge density      :  0.1184E+00
  | Change of unmixed KS density  :  0.1834E+00
  | Change of sum of eigenvalues  : -0.7789E+01 eV
  | Change of total energy        : -0.9583E-01 eV


------------------------------------------------------------
  End self-consistency iteration #     3       :  max(cpu_time)    wall_clock(cpu1)
  | Time for this iteration                     :        0.544 s           0.541 s
  | Charge density update                       :        0.168 s           0.166 s
  | Density mixing & preconditioning            :        0.076 s           0.074 s
  | Hartree multipole update                    :        0.004 s           0.003 s
  | Hartree multipole summation                 :        0.200 s           0.198 s
  | Integration                                 :        0.092 s           0.092 s
  | Solution of K.-S. eqns.                     :        0.008 s           0.006 s
  | Total energy evaluation                     :        0.004 s           0.001 s

  Partial memory accounting:
  | Current value for overall tracked memory usage:
  |   Minimum:        0.724 MB (on task  5)
  |   Maximum:        0.728 MB (on task  0)
  |   Average:        0.725 MB
  | Peak value for overall tracked memory usage:
  |   Minimum:        4.254 MB (on task 14 after allocating gradient_basis_wave)
  |   Maximum:        5.418 MB (on task  3 after allocating gradient_basis_wave)
  |   Average:        4.822 MB
  | Largest tracked array allocation so far:
  |   Minimum:        1.311 MB (gradient_basis_wave on task 14)
  |   Maximum:        1.638 MB (gradient_basis_wave on task  3)
  |   Average:        1.472 MB
  Note:  These values currently only include a subset of arrays which are explicitly tracked.
  The "true" memory usage will be greater.
------------------------------------------------------------

------------------------------------------------------------
          Begin self-consistency iteration #    4

  Date     :  20221003, Time     :  100729.398
------------------------------------------------------------
  Pulay mixing of updated and previous charge densities.
  Renormalizing the density to the exact electron count on the 3D integration grid.
  | Formal number of electrons (from input files) :      10.0000000000
  | Integrated number of electrons on 3D grid     :       9.9963339529
  | Charge integration error                      :      -0.0036660471
  | Normalization factor for density and gradient :       1.0003667392

  Evaluating partitioned Hartree potential by multipole expansion.
  | Original multipole sum: apparent total charge =   0.496874E-14
  | Sum of charges compensated after spline to logarithmic grids =   0.692044E-06
  | Analytical far-field extrapolation by fixed multipoles:
  | Hartree multipole sum: apparent total charge =   0.452598E-14
  Summing up the Hartree potential.
  Time summed over all CPUs for potential: real work        2.889 s, elapsed        3.044 s
  | RMS charge density error from multipole expansion :   0.262947E-02
  | Average real-space part of the electrostatic potential :      0.14987876 eV

  Integrating Hamiltonian matrix: batch-based integration.
  Time summed over all CPUs for integration: real work        1.145 s, elapsed        1.587 s => Consider using load balancing!

  Updating Kohn-Sham eigenvalues and eigenvectors using ELSI and the ELPA eigensolver.
  Starting ELPA eigensolver
  Finished transformation to standard eigenproblem
  | Time :     0.001 s
  Finished solving standard eigenproblem
  | Time :     0.004 s
  Finished back-transformation of eigenvectors
  | Time :     0.000 s

  Obtaining occupation numbers and electronic chemical potential using ELSI.
  | Note that, for insulating systems, the printed 'chemical potential' value is not uniquely defined.
  | It can be anywhere in the energy gap, as long as it correctly separates occupied and unoccupied states.
  | In systems with a gap, the physically relevant chemical potential is the VBM or HOMO.

  | Chemical potential (Fermi level):    -6.79873326 eV
  Highest occupied state (VBM) at     -7.72568576 eV (relative to internal zero)
  | Occupation number:      2.00000000
  | K-point:       1 at    0.000000    0.000000    0.000000 (in units of recip. lattice)

  Lowest unoccupied state (CBM) at    -2.55704109 eV (relative to internal zero)
  | Occupation number:      0.00000000
  | K-point:       1 at    0.000000    0.000000    0.000000 (in units of recip. lattice)

  ESTIMATED overall HOMO-LUMO gap:      5.16864467 eV between HOMO at k-point 1 and LUMO at k-point 1
  The gap value is above 0.2 eV. Unless you are using a very sparse k-point grid,
  this system is most likely an insulator or a semiconductor.

  Total energy components:
  | Sum of eigenvalues            :         -41.74064866 Ha       -1135.82084000 eV
  | XC energy correction          :          -9.21733885 Ha        -250.81655145 eV
  | XC potential correction       :          11.85548209 Ha         322.60408165 eV
  | Free-atom electrostatic energy:         -35.69288185 Ha        -971.25273193 eV
  | Hartree energy correction     :          -1.58882586 Ha         -43.23415127 eV
  | Entropy correction            :           0.00000000 Ha           0.00000000 eV
  | ---------------------------
  | Total energy                  :         -76.38421312 Ha       -2078.52019298 eV
  | Total energy, T -> 0          :         -76.38421312 Ha       -2078.52019298 eV  <-- do not rely on this value for anything but (periodic) metals
  | Electronic free energy        :         -76.38421312 Ha       -2078.52019298 eV

  Derived energy quantities:
  | Kinetic energy                :          76.11673624 Ha        2071.24177668 eV
  | Electrostatic energy          :        -143.28361051 Ha       -3898.94541822 eV
  | Energy correction for multipole
  | error in Hartree potential    :          -0.00106971 Ha          -0.02910828 eV
  | Sum of eigenvalues per atom                           :        -378.60694667 eV
  | Total energy (T->0) per atom                          :        -692.84006433 eV  <-- do not rely on this value for anything but (periodic) metals
  | Electronic free energy per atom                       :        -692.84006433 eV
  Evaluating new KS density using the density matrix
  Evaluating density matrix
  Finished density matrix calculation
  | Time :     0.000 s
  Time summed over all CPUs for getting density from density matrix: real work        1.949 s, elapsed        2.202 s
  Integration grid: deviation in total charge (<rho> - N_e) =  -1.776357E-15

  Self-consistency convergence accuracy:
  | Change of charge density      :  0.1050E+00
  | Change of unmixed KS density  :  0.5661E-01
  | Change of sum of eigenvalues  :  0.1235E+02 eV
  | Change of total energy        :  0.2457E+00 eV


------------------------------------------------------------
  End self-consistency iteration #     4       :  max(cpu_time)    wall_clock(cpu1)
  | Time for this iteration                     :        0.532 s           0.529 s
  | Charge density update                       :        0.140 s           0.141 s
  | Density mixing & preconditioning            :        0.076 s           0.072 s
  | Hartree multipole update                    :        0.004 s           0.003 s
[...]
  2.818439211966631E-011 -1.041642325922654E-010  2.202884753199892E-004
  0.000000000000000E+000  0.000000000000000E+000  0.000000000000000E+000
 FOU  0.000000000000000E+000  0.000000000000000E+000  0.000000000000000E+000
  0.000000000000000E+000  0.000000000000000E+000  0.000000000000000E+000
  0.000000000000000E+000  0.000000000000000E+000  0.000000000000000E+000
 FOU  0.000000000000000E+000  0.000000000000000E+000  0.000000000000000E+000
  0.000000000000000E+000  0.000000000000000E+000  0.000000000000000E+000
  0.000000000000000E+000  0.000000000000000E+000  0.000000000000000E+000
  5.195225794033299E-005 -3.945450771600165E-003  1.107989468377614E-008
  0.000000000000000E+000  0.000000000000000E+000  0.000000000000000E+000
 FOU  0.000000000000000E+000  0.000000000000000E+000  0.000000000000000E+000
  0.000000000000000E+000  0.000000000000000E+000  0.000000000000000E+000
  0.000000000000000E+000  0.000000000000000E+000  0.000000000000000E+000
  0.000000000000000E+000  0.000000000000000E+000  0.000000000000000E+000
  3.007573620578653E-011  9.368247796637551E-010  4.309038808068069E-003
  0.000000000000000E+000  0.000000000000000E+000  0.000000000000000E+000
  0.000000000000000E+000  0.000000000000000E+000  0.000000000000000E+000
  0.000000000000000E+000  0.000000000000000E+000  0.000000000000000E+000
  End CPSCF iteration #     5                  :  max(cpu_time)    wall_clock(cpu1)
  | Time for this iteration                     :        1.372 s           1.370 s
  | first_order_DM                              :        0.004 s           0.003 s
  | first_order_density                         :        0.148 s           0.145 s
  | first_order_potential                       :        0.260 s           0.259 s
  | first_order_H                               :        0.960 s           0.956 s
  | Solution of Sternheimer eqns.               :        0.004 s           0.003 s
------------------------------------------------------------

--------------------- CPSCF ---------------------------------------
          Begin CP-self-consistency iteration #    6

  Date     :  20221003, Time     :  100800.901
------------------------------------------------------------

  CPSCF convergence accuracy:
  | Change of first_order_density_matrix     :  0.7612E-03
  Integrating first_order_rho: batch-based integration.
  Time summed over all CPUs for integration: real work        1.986 s, elapsed        2.294 s

  Evaluating partitioned Hartree potential by multipole expansion.
  | Original multipole sum: apparent total charge =   0.188173E-14
  | Sum of charges compensated after spline to logarithmic grids =   0.460774E-06
  | Analytical far-field extrapolation by fixed multipoles:
  | Hartree multipole sum: apparent total charge =   0.178334E-14
  Summing up the Hartree potential.
  Time summed over all CPUs for potential: real work        3.516 s, elapsed        3.959 s
  | RMS delta_rho error from multipole expansion :   0.208280E-01

  Integrating first-order-Hamiltonian matrix: batch-based integration.
  Time summed over all CPUs for integration: real work       13.630 s, elapsed       15.660 s
 FOH  2.741940266765226E-002 -5.701840246586402E-005 -6.289356107929612E-005
  0.000000000000000E+000  7.868429070529700E-003  4.155793649124874E-003
  0.000000000000000E+000  0.000000000000000E+000  2.208692443338948E-002
 FOH -1.388072731227989E-003  3.626040880099370E-003 -1.138721878098179E-003
 FOH -2.759896655954276E-003 -1.067784220797341E-004  1.884059023650864E-011
  8.253698370690055E-003  3.581300308207030E-004 -6.502799508250519E-010
  1.849015099618299E-002  8.650109832261041E-004 -1.605920742655616E-011
 FOH -1.139380403177062E-011  1.047819590696836E-010  1.572755739004786E-005
 -2.146281376880750E-011  1.144569689933285E-009  4.125990525787518E-005
  1.073256682029349E-010 -1.124483183801996E-009 -2.324066080614511E-004
 FOH  0.000000000000000E+000  0.000000000000000E+000  0.000000000000000E+000
 FOH  5.343965355240413E-002 -1.886360400569501E-002 -5.310128168132847E-004
  9.432506692798101E-004 -3.210841490228077E-004  3.266690551295080E-002
  6.731041766324331E-004 -6.016625880074498E-005 -9.435249832822786E-003
 FOH  1.580746884047245E-002 -8.249161619002495E-003  4.234097712727471E-009
  0.000000000000000E+000  1.517857527320746E-002  2.745553869145697E-011
  0.000000000000000E+000  0.000000000000000E+000  7.704532270382035E-003
 FOH  0.000000000000000E+000  0.000000000000000E+000  0.000000000000000E+000
  0.000000000000000E+000  0.000000000000000E+000  0.000000000000000E+000
  0.000000000000000E+000  0.000000000000000E+000  0.000000000000000E+000
 FOH -1.580551591797369E-003 -7.450870994119252E-004  2.988536150545919E-002
  1.417028557764423E-002 -1.649497843986885E-002  1.867209464238722E-003
  1.650313234648301E-003 -5.895983603976998E-004 -2.297353473767137E-002
 FOH  0.000000000000000E+000  0.000000000000000E+000  0.000000000000000E+000
  0.000000000000000E+000  0.000000000000000E+000  0.000000000000000E+000
  0.000000000000000E+000  0.000000000000000E+000  0.000000000000000E+000
 FOH -1.082241548158964E-008 -1.542166482655123E-011  4.763304453023148E-003
 -5.294612492012128E-011  3.305364430617472E-009 -1.137703303114671E-004
 -1.793828313216074E-005  3.843950887710457E-003 -3.723165220017328E-011
 FOH  0.000000000000000E+000  0.000000000000000E+000  0.000000000000000E+000
  0.000000000000000E+000  0.000000000000000E+000  0.000000000000000E+000
  0.000000000000000E+000  0.000000000000000E+000  0.000000000000000E+000
 FOH -6.479466964036382E-003 -1.478313357581039E-004 -7.054860786509724E-003
  0.000000000000000E+000 -6.948441524918286E-003  1.375855018653060E-002
  0.000000000000000E+000  0.000000000000000E+000 -7.141885174165860E-003
 FOH  0.000000000000000E+000  0.000000000000000E+000  0.000000000000000E+000
 FOH  1.343500242503429E-002  1.071475628786379E-003  3.625949678314318E-010
  0.000000000000000E+000  1.354992555609922E-002  3.033032145742540E-009
  0.000000000000000E+000  0.000000000000000E+000  1.408500058183033E-002
 -5.814827194760947E-004 -2.145814923808735E-003  6.160824701426005E-002
  0.000000000000000E+000  0.000000000000000E+000  0.000000000000000E+000
 FOH  0.000000000000000E+000  0.000000000000000E+000  0.000000000000000E+000
  4.741299827374369E-003 -5.320675664917199E-003 -6.334703119780644E-002
  0.000000000000000E+000  0.000000000000000E+000  0.000000000000000E+000
  0.000000000000000E+000  0.000000000000000E+000  0.000000000000000E+000
  0.000000000000000E+000  0.000000000000000E+000  0.000000000000000E+000
  0.000000000000000E+000  0.000000000000000E+000  0.000000000000000E+000
  0.000000000000000E+000  0.000000000000000E+000  0.000000000000000E+000
 FOU -2.737634005548395E-013 -2.107071772267636E-004 -2.854289451758604E-011
  9.783365911335235E-011  6.197268494607361E-004  1.035285210873041E-010
 -1.574275663824187E-005  2.850577489209042E-010 -2.201425731658276E-004
 FOU  3.883831348929051E-009 -5.207696602535176E-005 -3.007981183091678E-011
 -3.090039910747007E-007  3.944844150817141E-003 -9.371860575952761E-010
 -3.222446112356725E-004 -1.104121581020468E-008 -4.309495387771808E-003
 FOU -6.419838739331115E-005 -4.862405603773970E-005 -2.996801608890635E-011
  2.148487767456475E-005  9.147644619726374E-003  6.484627987444020E-011
  1.313962070422767E-009  6.930338625006085E-009  2.371227463556618E-004
 FOU  0.000000000000000E+000  0.000000000000000E+000  0.000000000000000E+000
 FOU  0.000000000000000E+000  0.000000000000000E+000  0.000000000000000E+000
 FOU  0.000000000000000E+000  0.000000000000000E+000  0.000000000000000E+000
 FOU  0.000000000000000E+000  0.000000000000000E+000  0.000000000000000E+000
 FOU -3.883901688814204E-009  3.089968607321225E-007  3.223354698517478E-004
  5.207774942025469E-005 -3.944746169557634E-003  1.104795716672603E-008
  3.007956374027730E-011  9.372864157970909E-010  4.309403228411851E-003
 FOU  0.000000000000000E+000  0.000000000000000E+000  0.000000000000000E+000
  0.000000000000000E+000  0.000000000000000E+000  0.000000000000000E+000
  0.000000000000000E+000  0.000000000000000E+000  0.000000000000000E+000
 FOU  0.000000000000000E+000  0.000000000000000E+000  0.000000000000000E+000
  0.000000000000000E+000  0.000000000000000E+000  0.000000000000000E+000
  0.000000000000000E+000  0.000000000000000E+000  0.000000000000000E+000
 FOU  0.000000000000000E+000  0.000000000000000E+000  0.000000000000000E+000
  0.000000000000000E+000  0.000000000000000E+000  0.000000000000000E+000
  0.000000000000000E+000  0.000000000000000E+000  0.000000000000000E+000
 FOU  6.419899655863333E-005 -2.149169411188277E-005 -1.314090199246373E-009
  4.862432164994736E-005 -9.147672324562185E-003 -6.930514273185327E-009
  2.996852892904872E-011 -6.487354139697618E-011 -2.371194018772253E-004
 FOU  0.000000000000000E+000  0.000000000000000E+000  0.000000000000000E+000
  0.000000000000000E+000  0.000000000000000E+000  0.000000000000000E+000
  0.000000000000000E+000  0.000000000000000E+000  0.000000000000000E+000
 FOU  0.000000000000000E+000  0.000000000000000E+000  0.000000000000000E+000
  0.000000000000000E+000  0.000000000000000E+000  0.000000000000000E+000
  0.000000000000000E+000  0.000000000000000E+000  0.000000000000000E+000
 FOU  0.000000000000000E+000  0.000000000000000E+000  0.000000000000000E+000
  0.000000000000000E+000  0.000000000000000E+000  0.000000000000000E+000
  0.000000000000000E+000  0.000000000000000E+000  0.000000000000000E+000
 FOU  2.710294919004401E-013 -9.784505766695023E-011  1.574881935035823E-005
  2.107079947289797E-004 -6.197341308936415E-004 -2.851015593926444E-010
  2.855595629978396E-011 -1.034768264380491E-010  2.201400527615935E-004
  0.000000000000000E+000  0.000000000000000E+000  0.000000000000000E+000
  0.000000000000000E+000  0.000000000000000E+000  0.000000000000000E+000
  0.000000000000000E+000  0.000000000000000E+000  0.000000000000000E+000
  0.000000000000000E+000  0.000000000000000E+000  0.000000000000000E+000
  0.000000000000000E+000  0.000000000000000E+000  0.000000000000000E+000
  0.000000000000000E+000  0.000000000000000E+000  0.000000000000000E+000
  0.000000000000000E+000  0.000000000000000E+000  0.000000000000000E+000
  0.000000000000000E+000  0.000000000000000E+000  0.000000000000000E+000

  CP-self-consistency cycle converged.

  End CPSCF iteration #     6                  :  max(cpu_time)    wall_clock(cpu1)
  | Time for this iteration                     :        1.404 s           1.400 s
  | first_order_DM                              :        0.004 s           0.003 s
  | first_order_density                         :        0.148 s           0.145 s
  | first_order_potential                       :        0.264 s           0.264 s
  | first_order_H                               :        0.984 s           0.980 s
  | Solution of Sternheimer eqns.               :        0.004 s           0.003 s
------------------------------------------------------------
dP_dE (Bohr^3) at every cycle:--->
 (12.2540139235588,0.000000000000000E+000) (3.037585933521325E-006,0.000000000000000E+000) (-0.240157532223217,0.000000000000000E+000)
 (2.439752387940487E-006,0.000000000000000E+000) (10.8217795978443,0.000000000000000E+000) (1.602138604403338E-007,0.000000000000000E+000)
 (-0.240151335126732,0.000000000000000E+000) (1.936654131886878E-007,0.000000000000000E+000) (15.4855591705241,0.000000000000000E+000)
DFPT polarizability (Bohr^3)        xx        yy        zz        xy        xz        yz
  | Polarizability:--->                        12.254013924                   10.821779598                   15.485559171                    0.000003038                   -0.240157532                    0.000000160

DFPT for dielectric_constant:--->  # PARSE DFPT_dielectric_tensor
               1.182549907461595             0.000000045251379            -0.003577663250347
               0.000000036345362             1.161213695078170             0.000000002386730
              -0.003577570931259             0.000000002885063             1.230690728050786

                                               :  max(cpu_time)    wall_clock(cpu1)
  | Time for  dielectric calculation            :        0.004 s           0.001 s
===========================================================================

------------------------------------------------------------------------------
  Final output of selected total energy values:

  The following output summarizes some interesting total energy values
  at the end of a run (AFTER all relaxation, molecular dynamics, etc.).

  | Total energy of the DFT / Hartree-Fock s.c.f. calculation      :          -2078.504562254 eV
  | Final zero-broadening corrected energy (caution - metals only) :          -2078.504562254 eV
  | For reference only, the value of 1 Hartree used in FHI-aims is :             27.211384500 eV
  | For reference only, the overall average (free atom contribution
  | + realspace contribution) of the electrostatic potential after
  | s.c.f. convergence is                                          :             -1.115577765 eV

  Before relying on these values, please be sure to understand exactly which
  total energy value is referred to by a given number. Different objects may
  all carry the same name 'total energy'. Definitions:

  Total energy of the DFT / Hartree-Fock s.c.f. calculation:
  | Note that this energy does not include ANY quantities calculated after the
  | s.c.f. cycle, in particular not ANY RPA, MP2, etc. many-body perturbation terms.

  Final zero-broadening corrected energy:
  | For metallic systems only, a broadening of the occupation numbers at the Fermi
  | level can be extrapolated back to zero broadening by an electron-gas inspired
  | formula. For all systems that are not real metals, this value can be
  | meaningless and should be avoided.

------------------------------------------------------------------------------
  Methods described in the following list of references were used in this FHI-aims run.
  If you publish the results, please make sure to cite these reference if they apply.
  FHI-aims is an academic code, and for our developers (often, Ph.D. students
  and postdocs), scientific credit in the community is essential.
  Thank you for helping us!

  For any use of FHI-aims, please cite:

    Volker Blum, Ralf Gehrke, Felix Hanke, Paula Havu, Ville Havu,
    Xinguo Ren, Karsten Reuter, and Matthias Scheffler
    'Ab initio molecular simulations with numeric atom-centered orbitals'
    Computer Physics Communications 180, 2175-2196 (2009)
    http://doi.org/10.1016/j.cpc.2009.06.022


  The provided symmetry information was generated with SPGlib:

    Atsushi Togo, Yusuke Seto, Dimitar Pashov
    SPGlib 1.7.3 obtained from http://spglib.sourceforge.net
    Copyright (C) 2008 Atsushi Togo


  The DFPT (perturbation by an electric field) part of the code was used.
  Here is the corresponding reference:

    Honghui Shang, Nathaniel Raimbault, Mariana Rossi,
    Christian Carbogno, Patrick Rinke and Matthias Scheffler,
    'All-Electron, Real-Space Perturbation Theory for Homogeneous
    Electric Fields: Theory, Implementation, and Application within dft'
    New Journal of Physics, 20(7):073040, 2018


  The ELSI infrastructure was used in your run to solve the Kohn-Sham electronic structure.
  Please check out http://elsi-interchange.org to learn more.
  If scalability is important for your project, please acknowledge ELSI by citing:

    V. W-z. Yu, F. Corsetti, A. Garcia, W. P. Huhn, M. Jacquelin, W. Jia,
    B. Lange, L. Lin, J. Lu, W. Mi, A. Seifitokaldani, A. Vazquez-Mayagoitia,
    C. Yang, H. Yang, and V. Blum
    'ELSI: A unified software interface for Kohn-Sham electronic structure solvers'
    Computer Physics Communications 222, 267-285 (2018).
    http://doi.org/10.1016/j.cpc.2017.09.007


  For the real-space grid partitioning and parallelization used in this calculation, please cite:

    Ville Havu, Volker Blum, Paula Havu, and Matthias Scheffler,
    'Efficient O(N) integration for all-electron electronic structure calculation'
    'using numerically tabulated basis functions'
    Journal of Computational Physics 228, 8367-8379 (2009).
    http://doi.org/10.1016/j.jcp.2009.08.008

  Of course, there are many other important community references, e.g., those cited in the
  above references. Our list is limited to references that describe implementations in the
  FHI-aims code. The reason is purely practical (length of this list) - please credit others as well.

------------------------------------------------------------
          Leaving FHI-aims.
          Date     :  20221003, Time     :  100802.310

          Computational steps:
          | Number of self-consistency cycles          :           33
          | Number of SCF (re)initializations          :            1
          | Number of coupled perturbed self-consistency cycles          :            0
          | Number of CPSCF (re)initializations          :            0

          Detailed time accounting                     :  max(cpu_time)    wall_clock(cpu1)
          | Total time                                  :       35.240 s          35.256 s
          | Preparation time                            :        0.144 s           0.161 s
          | Boundary condition initalization            :        0.048 s           0.047 s
          | Grid partitioning                           :        0.076 s           0.075 s
          | Preloading free-atom quantities on grid     :        0.084 s           0.080 s
          | Free-atom superposition energy              :        0.012 s           0.011 s
          | Total time for integrations                 :        1.304 s           1.287 s
          | Total time for solution of K.-S. equations  :        0.128 s           0.103 s
          | Total time for density update               :        2.188 s           2.170 s
          | Total time for mixing & preconditioning     :        1.112 s           1.082 s
          | Total time for Hartree multipole update     :        0.056 s           0.044 s
          | Total time for Hartree multipole sum        :        2.924 s           2.900 s
          | Total time for total energy evaluation      :        0.060 s           0.021 s
          | Total time first_order_DM                   :        0.104 s           0.081 s
          | Total time first_order_density              :        2.876 s           2.828 s
          | Total time first_order_potential            :        4.604 s           4.580 s
          | Total time first_order_H                    :       18.548 s          18.511 s
          | Total time solving of Sternheimer equations :        0.076 s           0.053 s
          | Total time for dielectric constant          :        0.004 s           0.001 s
          | Total time momentum matrix                  :        0.000 s           0.000 s

          Partial memory accounting:
          | Residual value for overall tracked memory usage across tasks:     0.000000 MB (should be 0.000000 MB)
          | Peak values for overall tracked memory usage:
          |   Minimum:        9.327 MB (on task  5 after allocating DFPT_pulay_mixing::pulay_mix::alphas)
          |   Maximum:        9.331 MB (on task  0 after allocating DFPT_pulay_mixing::pulay_mix::alphas)
          |   Average:        9.328 MB
          | Largest tracked array allocation:
          |   Minimum:        3.345 MB (DFPT_pulay_mixing::initialize_pulay_mixing::X_in_diffs on task  0)
          |   Maximum:        3.345 MB (DFPT_pulay_mixing::initialize_pulay_mixing::X_in_diffs on task  0)
          |   Average:        3.345 MB
          Note:  These values currently only include a subset of arrays which are explicitly tracked.
          The "true" memory usage will be greater.

          Have a nice day.
------------------------------------------------------------
